Lammps Description

8000 atoms
24000 bonds

1 atom types
1 bond types

-10.000000 10.000000 xlo xhi
-10.000000 10.000000 ylo yhi
-10.000000 10.000000 zlo zhi
0.0 0.0 0.0  xy xz yz

Atoms # id mol type xu yu zu

1 1 1	-9.500000 -9.500000 -9.500000
2 1 1	-9.500000 -9.500000 -8.500000
3 1 1	-9.500000 -9.500000 -7.500000
4 1 1	-9.500000 -9.500000 -6.500000
5 1 1	-9.500000 -9.500000 -5.500000
6 1 1	-9.500000 -9.500000 -4.500000
7 1 1	-9.500000 -9.500000 -3.500000
8 1 1	-9.500000 -9.500000 -2.500000
9 1 1	-9.500000 -9.500000 -1.500000
10 1 1	-9.500000 -9.500000 -0.500000
11 1 1	-9.500000 -9.500000 0.500000
12 1 1	-9.500000 -9.500000 1.500000
13 1 1	-9.500000 -9.500000 2.500000
14 1 1	-9.500000 -9.500000 3.500000
15 1 1	-9.500000 -9.500000 4.500000
16 1 1	-9.500000 -9.500000 5.500000
17 1 1	-9.500000 -9.500000 6.500000
18 1 1	-9.500000 -9.500000 7.500000
19 1 1	-9.500000 -9.500000 8.500000
20 1 1	-9.500000 -9.500000 9.500000
21 1 1	-9.500000 -8.500000 -9.500000
22 1 1	-9.500000 -8.500000 -8.500000
23 1 1	-9.500000 -8.500000 -7.500000
24 1 1	-9.500000 -8.500000 -6.500000
25 1 1	-9.500000 -8.500000 -5.500000
26 1 1	-9.500000 -8.500000 -4.500000
27 1 1	-9.500000 -8.500000 -3.500000
28 1 1	-9.500000 -8.500000 -2.500000
29 1 1	-9.500000 -8.500000 -1.500000
30 1 1	-9.500000 -8.500000 -0.500000
31 1 1	-9.500000 -8.500000 0.500000
32 1 1	-9.500000 -8.500000 1.500000
33 1 1	-9.500000 -8.500000 2.500000
34 1 1	-9.500000 -8.500000 3.500000
35 1 1	-9.500000 -8.500000 4.500000
36 1 1	-9.500000 -8.500000 5.500000
37 1 1	-9.500000 -8.500000 6.500000
38 1 1	-9.500000 -8.500000 7.500000
39 1 1	-9.500000 -8.500000 8.500000
40 1 1	-9.500000 -8.500000 9.500000
41 1 1	-9.500000 -7.500000 -9.500000
42 1 1	-9.500000 -7.500000 -8.500000
43 1 1	-9.500000 -7.500000 -7.500000
44 1 1	-9.500000 -7.500000 -6.500000
45 1 1	-9.500000 -7.500000 -5.500000
46 1 1	-9.500000 -7.500000 -4.500000
47 1 1	-9.500000 -7.500000 -3.500000
48 1 1	-9.500000 -7.500000 -2.500000
49 1 1	-9.500000 -7.500000 -1.500000
50 1 1	-9.500000 -7.500000 -0.500000
51 1 1	-9.500000 -7.500000 0.500000
52 1 1	-9.500000 -7.500000 1.500000
53 1 1	-9.500000 -7.500000 2.500000
54 1 1	-9.500000 -7.500000 3.500000
55 1 1	-9.500000 -7.500000 4.500000
56 1 1	-9.500000 -7.500000 5.500000
57 1 1	-9.500000 -7.500000 6.500000
58 1 1	-9.500000 -7.500000 7.500000
59 1 1	-9.500000 -7.500000 8.500000
60 1 1	-9.500000 -7.500000 9.500000
61 1 1	-9.500000 -6.500000 -9.500000
62 1 1	-9.500000 -6.500000 -8.500000
63 1 1	-9.500000 -6.500000 -7.500000
64 1 1	-9.500000 -6.500000 -6.500000
65 1 1	-9.500000 -6.500000 -5.500000
66 1 1	-9.500000 -6.500000 -4.500000
67 1 1	-9.500000 -6.500000 -3.500000
68 1 1	-9.500000 -6.500000 -2.500000
69 1 1	-9.500000 -6.500000 -1.500000
70 1 1	-9.500000 -6.500000 -0.500000
71 1 1	-9.500000 -6.500000 0.500000
72 1 1	-9.500000 -6.500000 1.500000
73 1 1	-9.500000 -6.500000 2.500000
74 1 1	-9.500000 -6.500000 3.500000
75 1 1	-9.500000 -6.500000 4.500000
76 1 1	-9.500000 -6.500000 5.500000
77 1 1	-9.500000 -6.500000 6.500000
78 1 1	-9.500000 -6.500000 7.500000
79 1 1	-9.500000 -6.500000 8.500000
80 1 1	-9.500000 -6.500000 9.500000
81 1 1	-9.500000 -5.500000 -9.500000
82 1 1	-9.500000 -5.500000 -8.500000
83 1 1	-9.500000 -5.500000 -7.500000
84 1 1	-9.500000 -5.500000 -6.500000
85 1 1	-9.500000 -5.500000 -5.500000
86 1 1	-9.500000 -5.500000 -4.500000
87 1 1	-9.500000 -5.500000 -3.500000
88 1 1	-9.500000 -5.500000 -2.500000
89 1 1	-9.500000 -5.500000 -1.500000
90 1 1	-9.500000 -5.500000 -0.500000
91 1 1	-9.500000 -5.500000 0.500000
92 1 1	-9.500000 -5.500000 1.500000
93 1 1	-9.500000 -5.500000 2.500000
94 1 1	-9.500000 -5.500000 3.500000
95 1 1	-9.500000 -5.500000 4.500000
96 1 1	-9.500000 -5.500000 5.500000
97 1 1	-9.500000 -5.500000 6.500000
98 1 1	-9.500000 -5.500000 7.500000
99 1 1	-9.500000 -5.500000 8.500000
100 1 1	-9.500000 -5.500000 9.500000
101 1 1	-9.500000 -4.500000 -9.500000
102 1 1	-9.500000 -4.500000 -8.500000
103 1 1	-9.500000 -4.500000 -7.500000
104 1 1	-9.500000 -4.500000 -6.500000
105 1 1	-9.500000 -4.500000 -5.500000
106 1 1	-9.500000 -4.500000 -4.500000
107 1 1	-9.500000 -4.500000 -3.500000
108 1 1	-9.500000 -4.500000 -2.500000
109 1 1	-9.500000 -4.500000 -1.500000
110 1 1	-9.500000 -4.500000 -0.500000
111 1 1	-9.500000 -4.500000 0.500000
112 1 1	-9.500000 -4.500000 1.500000
113 1 1	-9.500000 -4.500000 2.500000
114 1 1	-9.500000 -4.500000 3.500000
115 1 1	-9.500000 -4.500000 4.500000
116 1 1	-9.500000 -4.500000 5.500000
117 1 1	-9.500000 -4.500000 6.500000
118 1 1	-9.500000 -4.500000 7.500000
119 1 1	-9.500000 -4.500000 8.500000
120 1 1	-9.500000 -4.500000 9.500000
121 1 1	-9.500000 -3.500000 -9.500000
122 1 1	-9.500000 -3.500000 -8.500000
123 1 1	-9.500000 -3.500000 -7.500000
124 1 1	-9.500000 -3.500000 -6.500000
125 1 1	-9.500000 -3.500000 -5.500000
126 1 1	-9.500000 -3.500000 -4.500000
127 1 1	-9.500000 -3.500000 -3.500000
128 1 1	-9.500000 -3.500000 -2.500000
129 1 1	-9.500000 -3.500000 -1.500000
130 1 1	-9.500000 -3.500000 -0.500000
131 1 1	-9.500000 -3.500000 0.500000
132 1 1	-9.500000 -3.500000 1.500000
133 1 1	-9.500000 -3.500000 2.500000
134 1 1	-9.500000 -3.500000 3.500000
135 1 1	-9.500000 -3.500000 4.500000
136 1 1	-9.500000 -3.500000 5.500000
137 1 1	-9.500000 -3.500000 6.500000
138 1 1	-9.500000 -3.500000 7.500000
139 1 1	-9.500000 -3.500000 8.500000
140 1 1	-9.500000 -3.500000 9.500000
141 1 1	-9.500000 -2.500000 -9.500000
142 1 1	-9.500000 -2.500000 -8.500000
143 1 1	-9.500000 -2.500000 -7.500000
144 1 1	-9.500000 -2.500000 -6.500000
145 1 1	-9.500000 -2.500000 -5.500000
146 1 1	-9.500000 -2.500000 -4.500000
147 1 1	-9.500000 -2.500000 -3.500000
148 1 1	-9.500000 -2.500000 -2.500000
149 1 1	-9.500000 -2.500000 -1.500000
150 1 1	-9.500000 -2.500000 -0.500000
151 1 1	-9.500000 -2.500000 0.500000
152 1 1	-9.500000 -2.500000 1.500000
153 1 1	-9.500000 -2.500000 2.500000
154 1 1	-9.500000 -2.500000 3.500000
155 1 1	-9.500000 -2.500000 4.500000
156 1 1	-9.500000 -2.500000 5.500000
157 1 1	-9.500000 -2.500000 6.500000
158 1 1	-9.500000 -2.500000 7.500000
159 1 1	-9.500000 -2.500000 8.500000
160 1 1	-9.500000 -2.500000 9.500000
161 1 1	-9.500000 -1.500000 -9.500000
162 1 1	-9.500000 -1.500000 -8.500000
163 1 1	-9.500000 -1.500000 -7.500000
164 1 1	-9.500000 -1.500000 -6.500000
165 1 1	-9.500000 -1.500000 -5.500000
166 1 1	-9.500000 -1.500000 -4.500000
167 1 1	-9.500000 -1.500000 -3.500000
168 1 1	-9.500000 -1.500000 -2.500000
169 1 1	-9.500000 -1.500000 -1.500000
170 1 1	-9.500000 -1.500000 -0.500000
171 1 1	-9.500000 -1.500000 0.500000
172 1 1	-9.500000 -1.500000 1.500000
173 1 1	-9.500000 -1.500000 2.500000
174 1 1	-9.500000 -1.500000 3.500000
175 1 1	-9.500000 -1.500000 4.500000
176 1 1	-9.500000 -1.500000 5.500000
177 1 1	-9.500000 -1.500000 6.500000
178 1 1	-9.500000 -1.500000 7.500000
179 1 1	-9.500000 -1.500000 8.500000
180 1 1	-9.500000 -1.500000 9.500000
181 1 1	-9.500000 -0.500000 -9.500000
182 1 1	-9.500000 -0.500000 -8.500000
183 1 1	-9.500000 -0.500000 -7.500000
184 1 1	-9.500000 -0.500000 -6.500000
185 1 1	-9.500000 -0.500000 -5.500000
186 1 1	-9.500000 -0.500000 -4.500000
187 1 1	-9.500000 -0.500000 -3.500000
188 1 1	-9.500000 -0.500000 -2.500000
189 1 1	-9.500000 -0.500000 -1.500000
190 1 1	-9.500000 -0.500000 -0.500000
191 1 1	-9.500000 -0.500000 0.500000
192 1 1	-9.500000 -0.500000 1.500000
193 1 1	-9.500000 -0.500000 2.500000
194 1 1	-9.500000 -0.500000 3.500000
195 1 1	-9.500000 -0.500000 4.500000
196 1 1	-9.500000 -0.500000 5.500000
197 1 1	-9.500000 -0.500000 6.500000
198 1 1	-9.500000 -0.500000 7.500000
199 1 1	-9.500000 -0.500000 8.500000
200 1 1	-9.500000 -0.500000 9.500000
201 1 1	-9.500000 0.500000 -9.500000
202 1 1	-9.500000 0.500000 -8.500000
203 1 1	-9.500000 0.500000 -7.500000
204 1 1	-9.500000 0.500000 -6.500000
205 1 1	-9.500000 0.500000 -5.500000
206 1 1	-9.500000 0.500000 -4.500000
207 1 1	-9.500000 0.500000 -3.500000
208 1 1	-9.500000 0.500000 -2.500000
209 1 1	-9.500000 0.500000 -1.500000
210 1 1	-9.500000 0.500000 -0.500000
211 1 1	-9.500000 0.500000 0.500000
212 1 1	-9.500000 0.500000 1.500000
213 1 1	-9.500000 0.500000 2.500000
214 1 1	-9.500000 0.500000 3.500000
215 1 1	-9.500000 0.500000 4.500000
216 1 1	-9.500000 0.500000 5.500000
217 1 1	-9.500000 0.500000 6.500000
218 1 1	-9.500000 0.500000 7.500000
219 1 1	-9.500000 0.500000 8.500000
220 1 1	-9.500000 0.500000 9.500000
221 1 1	-9.500000 1.500000 -9.500000
222 1 1	-9.500000 1.500000 -8.500000
223 1 1	-9.500000 1.500000 -7.500000
224 1 1	-9.500000 1.500000 -6.500000
225 1 1	-9.500000 1.500000 -5.500000
226 1 1	-9.500000 1.500000 -4.500000
227 1 1	-9.500000 1.500000 -3.500000
228 1 1	-9.500000 1.500000 -2.500000
229 1 1	-9.500000 1.500000 -1.500000
230 1 1	-9.500000 1.500000 -0.500000
231 1 1	-9.500000 1.500000 0.500000
232 1 1	-9.500000 1.500000 1.500000
233 1 1	-9.500000 1.500000 2.500000
234 1 1	-9.500000 1.500000 3.500000
235 1 1	-9.500000 1.500000 4.500000
236 1 1	-9.500000 1.500000 5.500000
237 1 1	-9.500000 1.500000 6.500000
238 1 1	-9.500000 1.500000 7.500000
239 1 1	-9.500000 1.500000 8.500000
240 1 1	-9.500000 1.500000 9.500000
241 1 1	-9.500000 2.500000 -9.500000
242 1 1	-9.500000 2.500000 -8.500000
243 1 1	-9.500000 2.500000 -7.500000
244 1 1	-9.500000 2.500000 -6.500000
245 1 1	-9.500000 2.500000 -5.500000
246 1 1	-9.500000 2.500000 -4.500000
247 1 1	-9.500000 2.500000 -3.500000
248 1 1	-9.500000 2.500000 -2.500000
249 1 1	-9.500000 2.500000 -1.500000
250 1 1	-9.500000 2.500000 -0.500000
251 1 1	-9.500000 2.500000 0.500000
252 1 1	-9.500000 2.500000 1.500000
253 1 1	-9.500000 2.500000 2.500000
254 1 1	-9.500000 2.500000 3.500000
255 1 1	-9.500000 2.500000 4.500000
256 1 1	-9.500000 2.500000 5.500000
257 1 1	-9.500000 2.500000 6.500000
258 1 1	-9.500000 2.500000 7.500000
259 1 1	-9.500000 2.500000 8.500000
260 1 1	-9.500000 2.500000 9.500000
261 1 1	-9.500000 3.500000 -9.500000
262 1 1	-9.500000 3.500000 -8.500000
263 1 1	-9.500000 3.500000 -7.500000
264 1 1	-9.500000 3.500000 -6.500000
265 1 1	-9.500000 3.500000 -5.500000
266 1 1	-9.500000 3.500000 -4.500000
267 1 1	-9.500000 3.500000 -3.500000
268 1 1	-9.500000 3.500000 -2.500000
269 1 1	-9.500000 3.500000 -1.500000
270 1 1	-9.500000 3.500000 -0.500000
271 1 1	-9.500000 3.500000 0.500000
272 1 1	-9.500000 3.500000 1.500000
273 1 1	-9.500000 3.500000 2.500000
274 1 1	-9.500000 3.500000 3.500000
275 1 1	-9.500000 3.500000 4.500000
276 1 1	-9.500000 3.500000 5.500000
277 1 1	-9.500000 3.500000 6.500000
278 1 1	-9.500000 3.500000 7.500000
279 1 1	-9.500000 3.500000 8.500000
280 1 1	-9.500000 3.500000 9.500000
281 1 1	-9.500000 4.500000 -9.500000
282 1 1	-9.500000 4.500000 -8.500000
283 1 1	-9.500000 4.500000 -7.500000
284 1 1	-9.500000 4.500000 -6.500000
285 1 1	-9.500000 4.500000 -5.500000
286 1 1	-9.500000 4.500000 -4.500000
287 1 1	-9.500000 4.500000 -3.500000
288 1 1	-9.500000 4.500000 -2.500000
289 1 1	-9.500000 4.500000 -1.500000
290 1 1	-9.500000 4.500000 -0.500000
291 1 1	-9.500000 4.500000 0.500000
292 1 1	-9.500000 4.500000 1.500000
293 1 1	-9.500000 4.500000 2.500000
294 1 1	-9.500000 4.500000 3.500000
295 1 1	-9.500000 4.500000 4.500000
296 1 1	-9.500000 4.500000 5.500000
297 1 1	-9.500000 4.500000 6.500000
298 1 1	-9.500000 4.500000 7.500000
299 1 1	-9.500000 4.500000 8.500000
300 1 1	-9.500000 4.500000 9.500000
301 1 1	-9.500000 5.500000 -9.500000
302 1 1	-9.500000 5.500000 -8.500000
303 1 1	-9.500000 5.500000 -7.500000
304 1 1	-9.500000 5.500000 -6.500000
305 1 1	-9.500000 5.500000 -5.500000
306 1 1	-9.500000 5.500000 -4.500000
307 1 1	-9.500000 5.500000 -3.500000
308 1 1	-9.500000 5.500000 -2.500000
309 1 1	-9.500000 5.500000 -1.500000
310 1 1	-9.500000 5.500000 -0.500000
311 1 1	-9.500000 5.500000 0.500000
312 1 1	-9.500000 5.500000 1.500000
313 1 1	-9.500000 5.500000 2.500000
314 1 1	-9.500000 5.500000 3.500000
315 1 1	-9.500000 5.500000 4.500000
316 1 1	-9.500000 5.500000 5.500000
317 1 1	-9.500000 5.500000 6.500000
318 1 1	-9.500000 5.500000 7.500000
319 1 1	-9.500000 5.500000 8.500000
320 1 1	-9.500000 5.500000 9.500000
321 1 1	-9.500000 6.500000 -9.500000
322 1 1	-9.500000 6.500000 -8.500000
323 1 1	-9.500000 6.500000 -7.500000
324 1 1	-9.500000 6.500000 -6.500000
325 1 1	-9.500000 6.500000 -5.500000
326 1 1	-9.500000 6.500000 -4.500000
327 1 1	-9.500000 6.500000 -3.500000
328 1 1	-9.500000 6.500000 -2.500000
329 1 1	-9.500000 6.500000 -1.500000
330 1 1	-9.500000 6.500000 -0.500000
331 1 1	-9.500000 6.500000 0.500000
332 1 1	-9.500000 6.500000 1.500000
333 1 1	-9.500000 6.500000 2.500000
334 1 1	-9.500000 6.500000 3.500000
335 1 1	-9.500000 6.500000 4.500000
336 1 1	-9.500000 6.500000 5.500000
337 1 1	-9.500000 6.500000 6.500000
338 1 1	-9.500000 6.500000 7.500000
339 1 1	-9.500000 6.500000 8.500000
340 1 1	-9.500000 6.500000 9.500000
341 1 1	-9.500000 7.500000 -9.500000
342 1 1	-9.500000 7.500000 -8.500000
343 1 1	-9.500000 7.500000 -7.500000
344 1 1	-9.500000 7.500000 -6.500000
345 1 1	-9.500000 7.500000 -5.500000
346 1 1	-9.500000 7.500000 -4.500000
347 1 1	-9.500000 7.500000 -3.500000
348 1 1	-9.500000 7.500000 -2.500000
349 1 1	-9.500000 7.500000 -1.500000
350 1 1	-9.500000 7.500000 -0.500000
351 1 1	-9.500000 7.500000 0.500000
352 1 1	-9.500000 7.500000 1.500000
353 1 1	-9.500000 7.500000 2.500000
354 1 1	-9.500000 7.500000 3.500000
355 1 1	-9.500000 7.500000 4.500000
356 1 1	-9.500000 7.500000 5.500000
357 1 1	-9.500000 7.500000 6.500000
358 1 1	-9.500000 7.500000 7.500000
359 1 1	-9.500000 7.500000 8.500000
360 1 1	-9.500000 7.500000 9.500000
361 1 1	-9.500000 8.500000 -9.500000
362 1 1	-9.500000 8.500000 -8.500000
363 1 1	-9.500000 8.500000 -7.500000
364 1 1	-9.500000 8.500000 -6.500000
365 1 1	-9.500000 8.500000 -5.500000
366 1 1	-9.500000 8.500000 -4.500000
367 1 1	-9.500000 8.500000 -3.500000
368 1 1	-9.500000 8.500000 -2.500000
369 1 1	-9.500000 8.500000 -1.500000
370 1 1	-9.500000 8.500000 -0.500000
371 1 1	-9.500000 8.500000 0.500000
372 1 1	-9.500000 8.500000 1.500000
373 1 1	-9.500000 8.500000 2.500000
374 1 1	-9.500000 8.500000 3.500000
375 1 1	-9.500000 8.500000 4.500000
376 1 1	-9.500000 8.500000 5.500000
377 1 1	-9.500000 8.500000 6.500000
378 1 1	-9.500000 8.500000 7.500000
379 1 1	-9.500000 8.500000 8.500000
380 1 1	-9.500000 8.500000 9.500000
381 1 1	-9.500000 9.500000 -9.500000
382 1 1	-9.500000 9.500000 -8.500000
383 1 1	-9.500000 9.500000 -7.500000
384 1 1	-9.500000 9.500000 -6.500000
385 1 1	-9.500000 9.500000 -5.500000
386 1 1	-9.500000 9.500000 -4.500000
387 1 1	-9.500000 9.500000 -3.500000
388 1 1	-9.500000 9.500000 -2.500000
389 1 1	-9.500000 9.500000 -1.500000
390 1 1	-9.500000 9.500000 -0.500000
391 1 1	-9.500000 9.500000 0.500000
392 1 1	-9.500000 9.500000 1.500000
393 1 1	-9.500000 9.500000 2.500000
394 1 1	-9.500000 9.500000 3.500000
395 1 1	-9.500000 9.500000 4.500000
396 1 1	-9.500000 9.500000 5.500000
397 1 1	-9.500000 9.500000 6.500000
398 1 1	-9.500000 9.500000 7.500000
399 1 1	-9.500000 9.500000 8.500000
400 1 1	-9.500000 9.500000 9.500000
401 1 1	-8.500000 -9.500000 -9.500000
402 1 1	-8.500000 -9.500000 -8.500000
403 1 1	-8.500000 -9.500000 -7.500000
404 1 1	-8.500000 -9.500000 -6.500000
405 1 1	-8.500000 -9.500000 -5.500000
406 1 1	-8.500000 -9.500000 -4.500000
407 1 1	-8.500000 -9.500000 -3.500000
408 1 1	-8.500000 -9.500000 -2.500000
409 1 1	-8.500000 -9.500000 -1.500000
410 1 1	-8.500000 -9.500000 -0.500000
411 1 1	-8.500000 -9.500000 0.500000
412 1 1	-8.500000 -9.500000 1.500000
413 1 1	-8.500000 -9.500000 2.500000
414 1 1	-8.500000 -9.500000 3.500000
415 1 1	-8.500000 -9.500000 4.500000
416 1 1	-8.500000 -9.500000 5.500000
417 1 1	-8.500000 -9.500000 6.500000
418 1 1	-8.500000 -9.500000 7.500000
419 1 1	-8.500000 -9.500000 8.500000
420 1 1	-8.500000 -9.500000 9.500000
421 1 1	-8.500000 -8.500000 -9.500000
422 1 1	-8.500000 -8.500000 -8.500000
423 1 1	-8.500000 -8.500000 -7.500000
424 1 1	-8.500000 -8.500000 -6.500000
425 1 1	-8.500000 -8.500000 -5.500000
426 1 1	-8.500000 -8.500000 -4.500000
427 1 1	-8.500000 -8.500000 -3.500000
428 1 1	-8.500000 -8.500000 -2.500000
429 1 1	-8.500000 -8.500000 -1.500000
430 1 1	-8.500000 -8.500000 -0.500000
431 1 1	-8.500000 -8.500000 0.500000
432 1 1	-8.500000 -8.500000 1.500000
433 1 1	-8.500000 -8.500000 2.500000
434 1 1	-8.500000 -8.500000 3.500000
435 1 1	-8.500000 -8.500000 4.500000
436 1 1	-8.500000 -8.500000 5.500000
437 1 1	-8.500000 -8.500000 6.500000
438 1 1	-8.500000 -8.500000 7.500000
439 1 1	-8.500000 -8.500000 8.500000
440 1 1	-8.500000 -8.500000 9.500000
441 1 1	-8.500000 -7.500000 -9.500000
442 1 1	-8.500000 -7.500000 -8.500000
443 1 1	-8.500000 -7.500000 -7.500000
444 1 1	-8.500000 -7.500000 -6.500000
445 1 1	-8.500000 -7.500000 -5.500000
446 1 1	-8.500000 -7.500000 -4.500000
447 1 1	-8.500000 -7.500000 -3.500000
448 1 1	-8.500000 -7.500000 -2.500000
449 1 1	-8.500000 -7.500000 -1.500000
450 1 1	-8.500000 -7.500000 -0.500000
451 1 1	-8.500000 -7.500000 0.500000
452 1 1	-8.500000 -7.500000 1.500000
453 1 1	-8.500000 -7.500000 2.500000
454 1 1	-8.500000 -7.500000 3.500000
455 1 1	-8.500000 -7.500000 4.500000
456 1 1	-8.500000 -7.500000 5.500000
457 1 1	-8.500000 -7.500000 6.500000
458 1 1	-8.500000 -7.500000 7.500000
459 1 1	-8.500000 -7.500000 8.500000
460 1 1	-8.500000 -7.500000 9.500000
461 1 1	-8.500000 -6.500000 -9.500000
462 1 1	-8.500000 -6.500000 -8.500000
463 1 1	-8.500000 -6.500000 -7.500000
464 1 1	-8.500000 -6.500000 -6.500000
465 1 1	-8.500000 -6.500000 -5.500000
466 1 1	-8.500000 -6.500000 -4.500000
467 1 1	-8.500000 -6.500000 -3.500000
468 1 1	-8.500000 -6.500000 -2.500000
469 1 1	-8.500000 -6.500000 -1.500000
470 1 1	-8.500000 -6.500000 -0.500000
471 1 1	-8.500000 -6.500000 0.500000
472 1 1	-8.500000 -6.500000 1.500000
473 1 1	-8.500000 -6.500000 2.500000
474 1 1	-8.500000 -6.500000 3.500000
475 1 1	-8.500000 -6.500000 4.500000
476 1 1	-8.500000 -6.500000 5.500000
477 1 1	-8.500000 -6.500000 6.500000
478 1 1	-8.500000 -6.500000 7.500000
479 1 1	-8.500000 -6.500000 8.500000
480 1 1	-8.500000 -6.500000 9.500000
481 1 1	-8.500000 -5.500000 -9.500000
482 1 1	-8.500000 -5.500000 -8.500000
483 1 1	-8.500000 -5.500000 -7.500000
484 1 1	-8.500000 -5.500000 -6.500000
485 1 1	-8.500000 -5.500000 -5.500000
486 1 1	-8.500000 -5.500000 -4.500000
487 1 1	-8.500000 -5.500000 -3.500000
488 1 1	-8.500000 -5.500000 -2.500000
489 1 1	-8.500000 -5.500000 -1.500000
490 1 1	-8.500000 -5.500000 -0.500000
491 1 1	-8.500000 -5.500000 0.500000
492 1 1	-8.500000 -5.500000 1.500000
493 1 1	-8.500000 -5.500000 2.500000
494 1 1	-8.500000 -5.500000 3.500000
495 1 1	-8.500000 -5.500000 4.500000
496 1 1	-8.500000 -5.500000 5.500000
497 1 1	-8.500000 -5.500000 6.500000
498 1 1	-8.500000 -5.500000 7.500000
499 1 1	-8.500000 -5.500000 8.500000
500 1 1	-8.500000 -5.500000 9.500000
501 1 1	-8.500000 -4.500000 -9.500000
502 1 1	-8.500000 -4.500000 -8.500000
503 1 1	-8.500000 -4.500000 -7.500000
504 1 1	-8.500000 -4.500000 -6.500000
505 1 1	-8.500000 -4.500000 -5.500000
506 1 1	-8.500000 -4.500000 -4.500000
507 1 1	-8.500000 -4.500000 -3.500000
508 1 1	-8.500000 -4.500000 -2.500000
509 1 1	-8.500000 -4.500000 -1.500000
510 1 1	-8.500000 -4.500000 -0.500000
511 1 1	-8.500000 -4.500000 0.500000
512 1 1	-8.500000 -4.500000 1.500000
513 1 1	-8.500000 -4.500000 2.500000
514 1 1	-8.500000 -4.500000 3.500000
515 1 1	-8.500000 -4.500000 4.500000
516 1 1	-8.500000 -4.500000 5.500000
517 1 1	-8.500000 -4.500000 6.500000
518 1 1	-8.500000 -4.500000 7.500000
519 1 1	-8.500000 -4.500000 8.500000
520 1 1	-8.500000 -4.500000 9.500000
521 1 1	-8.500000 -3.500000 -9.500000
522 1 1	-8.500000 -3.500000 -8.500000
523 1 1	-8.500000 -3.500000 -7.500000
524 1 1	-8.500000 -3.500000 -6.500000
525 1 1	-8.500000 -3.500000 -5.500000
526 1 1	-8.500000 -3.500000 -4.500000
527 1 1	-8.500000 -3.500000 -3.500000
528 1 1	-8.500000 -3.500000 -2.500000
529 1 1	-8.500000 -3.500000 -1.500000
530 1 1	-8.500000 -3.500000 -0.500000
531 1 1	-8.500000 -3.500000 0.500000
532 1 1	-8.500000 -3.500000 1.500000
533 1 1	-8.500000 -3.500000 2.500000
534 1 1	-8.500000 -3.500000 3.500000
535 1 1	-8.500000 -3.500000 4.500000
536 1 1	-8.500000 -3.500000 5.500000
537 1 1	-8.500000 -3.500000 6.500000
538 1 1	-8.500000 -3.500000 7.500000
539 1 1	-8.500000 -3.500000 8.500000
540 1 1	-8.500000 -3.500000 9.500000
541 1 1	-8.500000 -2.500000 -9.500000
542 1 1	-8.500000 -2.500000 -8.500000
543 1 1	-8.500000 -2.500000 -7.500000
544 1 1	-8.500000 -2.500000 -6.500000
545 1 1	-8.500000 -2.500000 -5.500000
546 1 1	-8.500000 -2.500000 -4.500000
547 1 1	-8.500000 -2.500000 -3.500000
548 1 1	-8.500000 -2.500000 -2.500000
549 1 1	-8.500000 -2.500000 -1.500000
550 1 1	-8.500000 -2.500000 -0.500000
551 1 1	-8.500000 -2.500000 0.500000
552 1 1	-8.500000 -2.500000 1.500000
553 1 1	-8.500000 -2.500000 2.500000
554 1 1	-8.500000 -2.500000 3.500000
555 1 1	-8.500000 -2.500000 4.500000
556 1 1	-8.500000 -2.500000 5.500000
557 1 1	-8.500000 -2.500000 6.500000
558 1 1	-8.500000 -2.500000 7.500000
559 1 1	-8.500000 -2.500000 8.500000
560 1 1	-8.500000 -2.500000 9.500000
561 1 1	-8.500000 -1.500000 -9.500000
562 1 1	-8.500000 -1.500000 -8.500000
563 1 1	-8.500000 -1.500000 -7.500000
564 1 1	-8.500000 -1.500000 -6.500000
565 1 1	-8.500000 -1.500000 -5.500000
566 1 1	-8.500000 -1.500000 -4.500000
567 1 1	-8.500000 -1.500000 -3.500000
568 1 1	-8.500000 -1.500000 -2.500000
569 1 1	-8.500000 -1.500000 -1.500000
570 1 1	-8.500000 -1.500000 -0.500000
571 1 1	-8.500000 -1.500000 0.500000
572 1 1	-8.500000 -1.500000 1.500000
573 1 1	-8.500000 -1.500000 2.500000
574 1 1	-8.500000 -1.500000 3.500000
575 1 1	-8.500000 -1.500000 4.500000
576 1 1	-8.500000 -1.500000 5.500000
577 1 1	-8.500000 -1.500000 6.500000
578 1 1	-8.500000 -1.500000 7.500000
579 1 1	-8.500000 -1.500000 8.500000
580 1 1	-8.500000 -1.500000 9.500000
581 1 1	-8.500000 -0.500000 -9.500000
582 1 1	-8.500000 -0.500000 -8.500000
583 1 1	-8.500000 -0.500000 -7.500000
584 1 1	-8.500000 -0.500000 -6.500000
585 1 1	-8.500000 -0.500000 -5.500000
586 1 1	-8.500000 -0.500000 -4.500000
587 1 1	-8.500000 -0.500000 -3.500000
588 1 1	-8.500000 -0.500000 -2.500000
589 1 1	-8.500000 -0.500000 -1.500000
590 1 1	-8.500000 -0.500000 -0.500000
591 1 1	-8.500000 -0.500000 0.500000
592 1 1	-8.500000 -0.500000 1.500000
593 1 1	-8.500000 -0.500000 2.500000
594 1 1	-8.500000 -0.500000 3.500000
595 1 1	-8.500000 -0.500000 4.500000
596 1 1	-8.500000 -0.500000 5.500000
597 1 1	-8.500000 -0.500000 6.500000
598 1 1	-8.500000 -0.500000 7.500000
599 1 1	-8.500000 -0.500000 8.500000
600 1 1	-8.500000 -0.500000 9.500000
601 1 1	-8.500000 0.500000 -9.500000
602 1 1	-8.500000 0.500000 -8.500000
603 1 1	-8.500000 0.500000 -7.500000
604 1 1	-8.500000 0.500000 -6.500000
605 1 1	-8.500000 0.500000 -5.500000
606 1 1	-8.500000 0.500000 -4.500000
607 1 1	-8.500000 0.500000 -3.500000
608 1 1	-8.500000 0.500000 -2.500000
609 1 1	-8.500000 0.500000 -1.500000
610 1 1	-8.500000 0.500000 -0.500000
611 1 1	-8.500000 0.500000 0.500000
612 1 1	-8.500000 0.500000 1.500000
613 1 1	-8.500000 0.500000 2.500000
614 1 1	-8.500000 0.500000 3.500000
615 1 1	-8.500000 0.500000 4.500000
616 1 1	-8.500000 0.500000 5.500000
617 1 1	-8.500000 0.500000 6.500000
618 1 1	-8.500000 0.500000 7.500000
619 1 1	-8.500000 0.500000 8.500000
620 1 1	-8.500000 0.500000 9.500000
621 1 1	-8.500000 1.500000 -9.500000
622 1 1	-8.500000 1.500000 -8.500000
623 1 1	-8.500000 1.500000 -7.500000
624 1 1	-8.500000 1.500000 -6.500000
625 1 1	-8.500000 1.500000 -5.500000
626 1 1	-8.500000 1.500000 -4.500000
627 1 1	-8.500000 1.500000 -3.500000
628 1 1	-8.500000 1.500000 -2.500000
629 1 1	-8.500000 1.500000 -1.500000
630 1 1	-8.500000 1.500000 -0.500000
631 1 1	-8.500000 1.500000 0.500000
632 1 1	-8.500000 1.500000 1.500000
633 1 1	-8.500000 1.500000 2.500000
634 1 1	-8.500000 1.500000 3.500000
635 1 1	-8.500000 1.500000 4.500000
636 1 1	-8.500000 1.500000 5.500000
637 1 1	-8.500000 1.500000 6.500000
638 1 1	-8.500000 1.500000 7.500000
639 1 1	-8.500000 1.500000 8.500000
640 1 1	-8.500000 1.500000 9.500000
641 1 1	-8.500000 2.500000 -9.500000
642 1 1	-8.500000 2.500000 -8.500000
643 1 1	-8.500000 2.500000 -7.500000
644 1 1	-8.500000 2.500000 -6.500000
645 1 1	-8.500000 2.500000 -5.500000
646 1 1	-8.500000 2.500000 -4.500000
647 1 1	-8.500000 2.500000 -3.500000
648 1 1	-8.500000 2.500000 -2.500000
649 1 1	-8.500000 2.500000 -1.500000
650 1 1	-8.500000 2.500000 -0.500000
651 1 1	-8.500000 2.500000 0.500000
652 1 1	-8.500000 2.500000 1.500000
653 1 1	-8.500000 2.500000 2.500000
654 1 1	-8.500000 2.500000 3.500000
655 1 1	-8.500000 2.500000 4.500000
656 1 1	-8.500000 2.500000 5.500000
657 1 1	-8.500000 2.500000 6.500000
658 1 1	-8.500000 2.500000 7.500000
659 1 1	-8.500000 2.500000 8.500000
660 1 1	-8.500000 2.500000 9.500000
661 1 1	-8.500000 3.500000 -9.500000
662 1 1	-8.500000 3.500000 -8.500000
663 1 1	-8.500000 3.500000 -7.500000
664 1 1	-8.500000 3.500000 -6.500000
665 1 1	-8.500000 3.500000 -5.500000
666 1 1	-8.500000 3.500000 -4.500000
667 1 1	-8.500000 3.500000 -3.500000
668 1 1	-8.500000 3.500000 -2.500000
669 1 1	-8.500000 3.500000 -1.500000
670 1 1	-8.500000 3.500000 -0.500000
671 1 1	-8.500000 3.500000 0.500000
672 1 1	-8.500000 3.500000 1.500000
673 1 1	-8.500000 3.500000 2.500000
674 1 1	-8.500000 3.500000 3.500000
675 1 1	-8.500000 3.500000 4.500000
676 1 1	-8.500000 3.500000 5.500000
677 1 1	-8.500000 3.500000 6.500000
678 1 1	-8.500000 3.500000 7.500000
679 1 1	-8.500000 3.500000 8.500000
680 1 1	-8.500000 3.500000 9.500000
681 1 1	-8.500000 4.500000 -9.500000
682 1 1	-8.500000 4.500000 -8.500000
683 1 1	-8.500000 4.500000 -7.500000
684 1 1	-8.500000 4.500000 -6.500000
685 1 1	-8.500000 4.500000 -5.500000
686 1 1	-8.500000 4.500000 -4.500000
687 1 1	-8.500000 4.500000 -3.500000
688 1 1	-8.500000 4.500000 -2.500000
689 1 1	-8.500000 4.500000 -1.500000
690 1 1	-8.500000 4.500000 -0.500000
691 1 1	-8.500000 4.500000 0.500000
692 1 1	-8.500000 4.500000 1.500000
693 1 1	-8.500000 4.500000 2.500000
694 1 1	-8.500000 4.500000 3.500000
695 1 1	-8.500000 4.500000 4.500000
696 1 1	-8.500000 4.500000 5.500000
697 1 1	-8.500000 4.500000 6.500000
698 1 1	-8.500000 4.500000 7.500000
699 1 1	-8.500000 4.500000 8.500000
700 1 1	-8.500000 4.500000 9.500000
701 1 1	-8.500000 5.500000 -9.500000
702 1 1	-8.500000 5.500000 -8.500000
703 1 1	-8.500000 5.500000 -7.500000
704 1 1	-8.500000 5.500000 -6.500000
705 1 1	-8.500000 5.500000 -5.500000
706 1 1	-8.500000 5.500000 -4.500000
707 1 1	-8.500000 5.500000 -3.500000
708 1 1	-8.500000 5.500000 -2.500000
709 1 1	-8.500000 5.500000 -1.500000
710 1 1	-8.500000 5.500000 -0.500000
711 1 1	-8.500000 5.500000 0.500000
712 1 1	-8.500000 5.500000 1.500000
713 1 1	-8.500000 5.500000 2.500000
714 1 1	-8.500000 5.500000 3.500000
715 1 1	-8.500000 5.500000 4.500000
716 1 1	-8.500000 5.500000 5.500000
717 1 1	-8.500000 5.500000 6.500000
718 1 1	-8.500000 5.500000 7.500000
719 1 1	-8.500000 5.500000 8.500000
720 1 1	-8.500000 5.500000 9.500000
721 1 1	-8.500000 6.500000 -9.500000
722 1 1	-8.500000 6.500000 -8.500000
723 1 1	-8.500000 6.500000 -7.500000
724 1 1	-8.500000 6.500000 -6.500000
725 1 1	-8.500000 6.500000 -5.500000
726 1 1	-8.500000 6.500000 -4.500000
727 1 1	-8.500000 6.500000 -3.500000
728 1 1	-8.500000 6.500000 -2.500000
729 1 1	-8.500000 6.500000 -1.500000
730 1 1	-8.500000 6.500000 -0.500000
731 1 1	-8.500000 6.500000 0.500000
732 1 1	-8.500000 6.500000 1.500000
733 1 1	-8.500000 6.500000 2.500000
734 1 1	-8.500000 6.500000 3.500000
735 1 1	-8.500000 6.500000 4.500000
736 1 1	-8.500000 6.500000 5.500000
737 1 1	-8.500000 6.500000 6.500000
738 1 1	-8.500000 6.500000 7.500000
739 1 1	-8.500000 6.500000 8.500000
740 1 1	-8.500000 6.500000 9.500000
741 1 1	-8.500000 7.500000 -9.500000
742 1 1	-8.500000 7.500000 -8.500000
743 1 1	-8.500000 7.500000 -7.500000
744 1 1	-8.500000 7.500000 -6.500000
745 1 1	-8.500000 7.500000 -5.500000
746 1 1	-8.500000 7.500000 -4.500000
747 1 1	-8.500000 7.500000 -3.500000
748 1 1	-8.500000 7.500000 -2.500000
749 1 1	-8.500000 7.500000 -1.500000
750 1 1	-8.500000 7.500000 -0.500000
751 1 1	-8.500000 7.500000 0.500000
752 1 1	-8.500000 7.500000 1.500000
753 1 1	-8.500000 7.500000 2.500000
754 1 1	-8.500000 7.500000 3.500000
755 1 1	-8.500000 7.500000 4.500000
756 1 1	-8.500000 7.500000 5.500000
757 1 1	-8.500000 7.500000 6.500000
758 1 1	-8.500000 7.500000 7.500000
759 1 1	-8.500000 7.500000 8.500000
760 1 1	-8.500000 7.500000 9.500000
761 1 1	-8.500000 8.500000 -9.500000
762 1 1	-8.500000 8.500000 -8.500000
763 1 1	-8.500000 8.500000 -7.500000
764 1 1	-8.500000 8.500000 -6.500000
765 1 1	-8.500000 8.500000 -5.500000
766 1 1	-8.500000 8.500000 -4.500000
767 1 1	-8.500000 8.500000 -3.500000
768 1 1	-8.500000 8.500000 -2.500000
769 1 1	-8.500000 8.500000 -1.500000
770 1 1	-8.500000 8.500000 -0.500000
771 1 1	-8.500000 8.500000 0.500000
772 1 1	-8.500000 8.500000 1.500000
773 1 1	-8.500000 8.500000 2.500000
774 1 1	-8.500000 8.500000 3.500000
775 1 1	-8.500000 8.500000 4.500000
776 1 1	-8.500000 8.500000 5.500000
777 1 1	-8.500000 8.500000 6.500000
778 1 1	-8.500000 8.500000 7.500000
779 1 1	-8.500000 8.500000 8.500000
780 1 1	-8.500000 8.500000 9.500000
781 1 1	-8.500000 9.500000 -9.500000
782 1 1	-8.500000 9.500000 -8.500000
783 1 1	-8.500000 9.500000 -7.500000
784 1 1	-8.500000 9.500000 -6.500000
785 1 1	-8.500000 9.500000 -5.500000
786 1 1	-8.500000 9.500000 -4.500000
787 1 1	-8.500000 9.500000 -3.500000
788 1 1	-8.500000 9.500000 -2.500000
789 1 1	-8.500000 9.500000 -1.500000
790 1 1	-8.500000 9.500000 -0.500000
791 1 1	-8.500000 9.500000 0.500000
792 1 1	-8.500000 9.500000 1.500000
793 1 1	-8.500000 9.500000 2.500000
794 1 1	-8.500000 9.500000 3.500000
795 1 1	-8.500000 9.500000 4.500000
796 1 1	-8.500000 9.500000 5.500000
797 1 1	-8.500000 9.500000 6.500000
798 1 1	-8.500000 9.500000 7.500000
799 1 1	-8.500000 9.500000 8.500000
800 1 1	-8.500000 9.500000 9.500000
801 1 1	-7.500000 -9.500000 -9.500000
802 1 1	-7.500000 -9.500000 -8.500000
803 1 1	-7.500000 -9.500000 -7.500000
804 1 1	-7.500000 -9.500000 -6.500000
805 1 1	-7.500000 -9.500000 -5.500000
806 1 1	-7.500000 -9.500000 -4.500000
807 1 1	-7.500000 -9.500000 -3.500000