LAMMPS Description

3100 atoms
3000 bonds

3 atom types
1 bond types

-10 40 xlo xhi
-20 20 ylo yhi
-20 20 zlo zhi

Masses

1 1
2 1
3 1

Atoms # id mol type xu yu zu

1 1 1 	0.00000 0.00000 0.00000
2 1 2 	-0.26324 0.47525 0.69205
3 1 2 	-0.06569 0.77687 0.30494
4 1 2 	-0.29075 1.04058 0.23865
5 1 2 	-0.78906 1.02223 0.23129
6 1 2 	-1.12131 1.35287 -0.63345
7 1 2 	-1.35565 0.56783 -1.16807
8 1 2 	-1.93270 1.07962 -1.39799
9 1 2 	-1.94077 1.70330 -2.01911
10 1 2 	-2.51901 2.01156 -1.65000
11 1 2 	-2.74567 1.69624 -1.18522
12 1 2 	-3.05588 2.92755 -1.13943
13 1 2 	-2.40883 3.35829 -1.54902
14 1 2 	-3.23514 2.81979 -2.13883
15 1 2 	-2.20245 2.23832 -1.34451
16 1 2 	-2.57944 2.13462 -0.63803
17 1 2 	-1.90398 2.88597 0.04714
18 1 2 	-2.43804 2.54869 -0.19815
19 1 2 	-2.29951 2.00265 -0.08224
20 1 2 	-3.09246 1.42251 0.46984
21 1 2 	-3.43623 0.04756 0.67113
22 1 2 	-4.00753 0.32984 0.57076
23 1 2 	-4.73504 1.18679 0.56737
24 1 2 	-3.72551 0.28267 0.09792
25 1 2 	-4.34557 0.95897 0.68411
26 1 2 	-4.38139 0.39290 0.90787
27 1 2 	-4.01064 -0.21149 1.75323
28 1 2 	-4.31523 -0.48463 1.19090
29 1 2 	-4.24552 0.42858 2.03146
30 1 2 	-4.57210 0.42394 2.30088
31 1 3 	-4.27633 0.75317 2.04638
32 2 1 	0.00000 0.00000 0.00000
33 2 2 	-0.12827 -0.27471 -0.44702
34 2 2 	-1.25294 -1.05672 -1.17710
35 2 2 	-1.09110 -0.92038 -1.58840
36 2 2 	-0.43182 -0.90052 -1.60612
37 2 2 	-0.05046 -1.09694 -1.91320
38 2 2 	0.08325 -0.33867 -2.39884
39 2 2 	0.14560 -0.07363 -3.22631
40 2 2 	0.62515 0.10900 -3.37191
41 2 2 	0.65373 0.37718 -2.32474
42 2 2 	1.02706 0.97834 -1.44288
43 2 2 	1.02097 0.41728 -1.87638
44 2 2 	1.02030 -0.04873 -2.10208
45 2 2 	0.38352 -0.16419 -1.54304
46 2 2 	1.15239 -0.70368 -2.54934
47 2 2 	1.65858 -0.28292 -2.51735
48 2 2 	2.17248 0.53370 -3.24101
49 2 2 	2.85687 0.07255 -2.72873
50 2 2 	2.85887 -0.16855 -3.01162
51 2 2 	2.78413 -0.33603 -3.09989
52 2 2 	3.38236 -0.93916 -2.56615
53 2 2 	4.25470 0.00501 -2.63082
54 2 2 	5.25433 -1.00536 -3.39792
55 2 2 	6.15116 -0.43690 -3.47567
56 2 2 	6.23706 -1.13767 -4.58441
57 2 2 	6.29236 -2.10697 -4.70062
58 2 2 	6.45438 -1.56425 -3.80612
59 2 2 	6.92955 -1.48409 -4.56186
60 2 2 	8.02941 -2.65162 -4.98741
61 2 2 	7.83031 -3.03327 -5.22162
62 2 3 	8.62648 -3.79363 -5.19684
63 3 1 	0.00000 0.00000 0.00000
64 3 2 	-0.42013 -0.65326 0.19932
65 3 2 	0.17243 -0.84487 0.99063
66 3 2 	0.55959 -1.13923 2.30205
67 3 2 	0.28188 -1.11788 3.17590
68 3 2 	-0.01942 -1.81406 2.76561
69 3 2 	-0.14606 -2.11950 2.92282
70 3 2 	-0.92236 -2.45352 2.06678
71 3 2 	-0.98592 -3.61166 1.82936
72 3 2 	-0.77970 -2.70525 1.50341
73 3 2 	-0.23169 -3.07238 1.50046
74 3 2 	0.38549 -2.79461 2.25654
75 3 2 	0.66633 -2.53568 2.54315
76 3 2 	0.44712 -2.88110 1.61464
77 3 2 	0.06745 -3.80272 2.05962
78 3 2 	-0.33054 -4.39147 1.80704
79 3 2 	-0.07783 -4.19870 1.39903
80 3 2 	-1.33862 -4.13014 2.06715
81 3 2 	-2.27613 -3.91412 1.95717
82 3 2 	-2.33065 -3.81667 2.38155
83 3 2 	-2.26436 -3.01569 2.51386
84 3 2 	-2.18973 -4.26338 2.65245
85 3 2 	-1.95658 -3.73341 3.17922
86 3 2 	-2.39358 -3.70543 3.65725
87 3 2 	-2.54895 -4.29932 3.06788
88 3 2 	-2.00507 -3.59790 2.28962
89 3 2 	-1.42626 -3.24185 1.72735
90 3 2 	-1.47503 -3.12635 2.00109
91 3 2 	-2.83900 -3.99550 2.72252
92 3 2 	-3.19537 -3.50219 2.95193
93 3 3 	-3.67531 -4.25047 4.10913
94 4 1 	0.00000 0.00000 0.00000
95 4 2 	0.06341 0.91560 -1.64687
96 4 2 	0.39129 0.98957 -2.09733
97 4 2 	0.61055 0.59157 -3.55481
98 4 2 	0.60009 0.14426 -3.20901
99 4 2 	0.65940 -0.16226 -2.27739
100 4 2 	0.50609 -0.19898 -1.63186
101 4 2 	0.60911 -0.78576 -1.64774
102 4 2 	-0.48515 -0.48042 -1.77101
103 4 2 	0.05339 -0.39308 -1.23748
104 4 2 	-0.16238 -0.54204 -2.15889
105 4 2 	0.04968 -1.02667 -2.77739
106 4 2 	0.15768 -1.58395 -2.90170
107 4 2 	1.34475 -1.39659 -3.09690
108 4 2 	1.97761 -1.24139 -3.67980
109 4 2 	3.50970 -2.85204 -4.16386
110 4 2 	3.93341 -3.41738 -4.50482
111 4 2 	4.95833 -3.01961 -3.81057
112 4 2 	4.58073 -3.19164 -3.74654
113 4 2 	4.80298 -3.43887 -3.17101
114 4 2 	4.64608 -3.24973 -3.03718
115 4 2 	4.96543 -3.71145 -2.87224
116 4 2 	4.47256 -3.70250 -3.81771
117 4 2 	4.33681 -3.84757 -4.19655
118 4 2 	3.30719 -3.87111 -3.89466
119 4 2 	2.67609 -5.17110 -4.45617
120 4 2 	2.50528 -4.90443 -3.47796
121 4 2 	3.29505 -5.48658 -2.79607
122 4 2 	3.09291 -5.44687 -3.05238
123 4 2 	3.16015 -4.97586 -3.29569
124 4 3 	2.42761 -4.69661 -2.22400
125 5 1 	0.00000 0.00000 0.00000
126 5 2 	-0.13758 0.03293 0.66036
127 5 2 	0.28207 0.21870 0.54054
128 5 2 	-0.24898 -0.09866 -0.20054
129 5 2 	0.03062 -0.10619 0.11902
130 5 2 	-1.60595 0.07962 -0.06956
131 5 2 	-2.04450 0.39363 -0.61791
132 5 2 	-1.57167 -0.14087 -0.27387
133 5 2 	-1.58614 0.48352 -0.35120
134 5 2 	-2.07262 -0.17032 -0.70853
135 5 2 	-1.80937 -0.68368 -1.15392
136 5 2 	-1.36139 0.21800 -0.81579
137 5 2 	-1.10733 -0.40942 0.11007
138 5 2 	-1.22104 -0.43348 -0.37647
139 5 2 	-1.71802 -0.22375 -0.54899
140 5 2 	-1.54800 -0.07280 -0.62126
141 5 2 	-0.89144 0.20916 -1.17760
142 5 2 	-1.22123 -1.10214 -0.53621
143 5 2 	-1.50105 -0.18033 -1.55688
144 5 2 	-2.10750 -0.60764 -1.49699
145 5 2 	-2.05935 -0.56255 -2.99418
146 5 2 	-2.16051 0.10062 -3.29577
147 5 2 	-2.63752 0.55825 -3.05979
148 5 2 	-2.92795 0.69801 -3.95752
149 5 2 	-3.62999 1.08836 -3.29735
150 5 2 	-3.54903 1.27713 -3.00848
151 5 2 	-3.75553 1.50848 -1.93042
152 5 2 	-3.99518 1.64694 -2.24334
153 5 2 	-3.78162 2.57083 -1.69861
154 5 2 	-3.46932 2.46016 -2.00234
155 5 3 	-2.68786 2.16814 -2.49274
156 6 1 	0.00000 0.00000 0.00000
157 6 2 	-0.13552 0.72590 0.36149
158 6 2 	-0.00966 0.92526 0.66297
159 6 2 	0.54310 1.56133 0.66522
160 6 2 	0.96973 1.50766 0.46223
161 6 2 	1.13302 1.58035 0.47560
162 6 2 	0.26857 1.57581 1.07687
163 6 2 	0.30494 1.69723 1.14776
164 6 2 	0.52918 1.88382 0.17995
165 6 2 	1.38512 1.69967 -0.41949
166 6 2 	1.73994 1.19273 -0.39427
167 6 2 	0.99200 1.54250 -1.52972
168 6 2 	1.45697 0.68706 -1.99857
169 6 2 	1.06664 0.54758 -2.61985
170 6 2 	1.18306 1.24712 -2.33019
171 6 2 	1.57441 0.48912 -1.69486
172 6 2 	0.32501 1.04510 -2.01848
173 6 2 	1.38219 1.45515 -1.20311
174 6 2 	0.49727 1.62228 -1.77722
175 6 2 	0.44596 0.69013 -2.12429
176 6 2 	1.19838 1.61769 -3.91640
177 6 2 	1.88990 0.81401 -3.54888
178 6 2 	1.98514 0.48367 -3.87057
179 6 2 	1.96401 -0.07707 -4.01234
180 6 2 	2.52720 -0.76380 -3.84074
181 6 2 	1.64378 -0.80805 -3.58975
182 6 2 	0.65650 -0.30042 -4.12206
183 6 2 	1.03034 -0.23958 -4.47501
184 6 2 	1.35763 0.07682 -4.56689
185 6 2 	0.62505 0.66838 -5.42310
186 6 3 	0.32784 -0.68421 -5.40297
187 7 1 	0.00000 0.00000 0.00000
188 7 2 	-0.73520 0.20551 0.09529
189 7 2 	-1.24782 0.57616 0.62357
190 7 2 	-1.07189 0.57582 0.29012
191 7 2 	-1.18095 -0.58770 -1.01546
192 7 2 	-0.90089 -1.06561 -0.90720
193 7 2 	-0.66451 -0.78766 -0.21164
194 7 2 	-1.19328 -0.16613 -0.36244
195 7 2 	-2.16850 -0.54166 0.14867
196 7 2 	-1.61586 -0.58649 0.31378
197 7 2 	-1.33251 -0.13520 -0.08325
198 7 2 	-1.67878 0.43240 0.60031
199 7 2 	-0.89112 1.02320 0.60771
200 7 2 	-2.23469 0.73102 0.76890
201 7 2 	-1.96591 0.15958 -0.04475
202 7 2 	-2.00332 -0.19091 -0.50376
203 7 2 	-2.39920 0.03050 -1.10691
204 7 2 	-1.62338 0.54591 -0.43055
205 7 2 	-1.69266 1.20188 -1.39306
206 7 2 	-1.97245 0.44763 -1.35578
207 7 2 	-1.29577 1.01638 -1.29681
208 7 2 	-1.54011 1.15709 -2.02061
209 7 2 	-1.42476 -0.34606 -2.31414
210 7 2 	-1.29698 0.14396 -1.31814
211 7 2 	-1.40015 0.63930 -2.08432
212 7 2 	-1.71132 1.01885 -2.30440
213 7 2 	-1.35420 1.39482 -1.73614
214 7 2 	-1.43776 0.82583 -1.47936
215 7 2 	-1.46960 -0.30427 -1.19174
216 7 2 	-0.77901 -0.49736 -2.13103
217 7 3 	-1.43633 0.18588 -2.43145
218 8 1 	0.00000 0.00000 0.00000
219 8 2 	-0.25374 -0.38769 0.18704
220 8 2 	-0.78555 -0.83776 0.89342
221 8 2 	-0.78489 -1.62963 -0.72582
222 8 2 	-1.02564 -1.51924 -0.12364
223 8 2 	-0.94608 -0.66315 1.28750
224 8 2 	-1.03989 -0.53488 0.58531
225 8 2 	-1.74359 0.79501 0.96892
226 8 2 	0.09790 0.07762 1.64424
227 8 2 	-0.52834 0.59417 1.73428
228 8 2 	-0.62177 0.97809 1.49032
229 8 2 	-1.40152 1.16356 1.17423
230 8 2 	-1.67791 0.87235 2.33681
231 8 2 	-2.84374 0.54989 2.57634
232 8 2 	-2.48194 0.80074 2.75550
233 8 2 	-2.53343 0.55377 2.22916
234 8 2 	-2.82737 -0.22287 3.54744
235 8 2 	-3.14086 0.32083 5.33072
236 8 2 	-3.31131 0.49042 5.14712
237 8 2 	-3.29708 1.59358 4.11231
238 8 2 	-4.04271 2.06829 3.04451
239 8 2 	-4.11159 2.45751 2.93570
240 8 2 	-4.33058 3.06824 2.22410
241 8 2 	-4.30121 3.06657 2.46945
242 8 2 	-4.49879 2.11828 2.48434
243 8 2 	-3.93809 2.97671 2.18880
244 8 2 	-5.07211 2.94968 1.04768
245 8 2 	-4.11079 2.62026 -0.25596
246 8 2 	-4.40480 2.23047 -1.45274
247 8 2 	-4.30120 1.59290 -1.68810
248 8 3 	-3.70946 2.42757 -2.09606
249 9 1 	0.00000 0.00000 0.00000
250 9 2 	0.09089 -0.76632 -0.56736
251 9 2 	-0.12590 -1.08334 -0.36061
252 9 2 	-0.99131 -0.23524 -1.12598
253 9 2 	-0.78373 -1.09651 -0.14087
254 9 2 	-0.92644 -2.69872 -0.09059
255 9 2 	-1.81488 -1.85308 0.22297
256 9 2 	-2.55644 -0.99371 -0.56958
257 9 2 	-3.39647 -1.67709 -1.21645
258 9 2 	-2.99856 -1.88104 -0.24627
259 9 2 	-2.95030 -1.45883 0.11831
260 9 2 	-3.25194 -1.10330 0.38903
261 9 2 	-3.13091 -1.42731 1.00341
262 9 2 	-2.53732 -1.76212 0.11991
263 9 2 	-1.83827 -2.43914 0.71148
264 9 2 	-0.27479 -2.78162 -0.48042
265 9 2 	-0.73065 -2.65774 -0.09534
266 9 2 	-0.48117 -2.69484 -0.40919
267 9 2 	-1.03232 -1.48175 -0.14949
268 9 2 	-0.66793 -2.14304 -0.58461
269 9 2 	-0.62797 -1.73075 -1.16545
270 9 2 	-1.22269 -1.70217 -1.73365
271 9 2 	-1.83572 -1.07526 -1.73473
272 9 2 	-2.53053 -1.11433 -2.22301
273 9 2 	-2.00564 -2.24476 -1.78566
274 9 2 	-1.33732 -2.96432 -1.44081
275 9 2 	-0.32422 -2.84483 -1.88499
276 9 2 	-0.15537 -1.95419 -2.44904
277 9 2 	0.33143 -1.99040 -3.76434
278 9 2 	1.02499 -1.23227 -4.79457
279 9 3 	0.16862 -1.31378 -4.76759
280 10 1 	0.00000 0.00000 0.00000
281 10 2 	-0.00683 0.77866 -0.24737
282 10 2 	0.44957 1.14932 -0.03399
283 10 2 	0.70446 0.73992 1.07876
284 10 2 	1.13316 0.52513 1.28725
285 10 2 	2.16817 -0.32265 1.03065
286 10 2 	1.87473 -0.34417 2.16790
287 10 2 	2.99149 -0.02785 1.47660
288 10 2 	3.50358 0.09787 1.26719
289 10 2 	3.14953 -0.80334 0.31789
290 10 2 	2.39019 -0.47395 0.78278
291 10 2 	2.08680 -0.00347 1.37178
292 10 2 	1.60735 0.18111 1.60131
293 10 2 	0.50723 0.23453 0.96877
294 10 2 	0.61498 -0.30600 -0.06786
295 10 2 	0.53397 -0.76227 0.29143
296 10 2 	0.33800 -0.14531 0.47744
297 10 2 	1.07627 0.27630 -0.33106
298 10 2 	0.25329 0.29289 -0.47634
299 10 2 	-0.74542 -0.54607 -0.87882
300 10 2 	-0.53938 -0.46310 -1.68135
301 10 2 	0.02962 -0.09655 -1.69600
302 10 2 	-0.26884 -0.17738 -2.09639
303 10 2 	0.05635 -0.28441 -1.65328
304 10 2 	0.03873 0.19844 -1.82710
305 10 2 	-0.03472 0.52852 -1.21679
306 10 2 	0.06281 0.73323 -0.49557
307 10 2 	-1.02685 0.90616 -0.19467
308 10 2 	-0.11974 -0.71738 -0.62061
309 10 2 	-0.07180 -0.92017 -0.75346
310 10 3 	0.44258 -1.85473 -0.89161
311 11 1 	0.00000 0.00000 0.00000
312 11 2 	-0.06061 -0.24332 -0.24182
313 11 2 	0.46232 -0.34964 0.52989
314 11 2 	0.47218 0.00177 0.46984
315 11 2 	-0.33375 0.09602 0.76762
316 11 2 	-0.35038 0.02496 1.05897
317 11 2 	-0.92610 -0.22598 0.64948
318 11 2 	-0.88699 -0.45919 0.43407
319 11 2 	-0.45795 -0.09859 0.81177
320 11 2 	-0.59721 -0.53733 1.57194
321 11 2 	-0.31377 0.28588 1.81092
322 11 2 	-0.49187 0.09896 2.26058
323 11 2 	-1.33665 1.73700 1.98728
324 11 2 	-0.41398 1.45508 1.33110
325 11 2 	0.24404 1.13763 1.40637
326 11 2 	-0.71772 2.15383 1.97787
327 11 2 	-1.32835 2.89544 2.08672
328 11 2 	-1.53259 2.85245 2.40664
329 11 2 	-1.85163 2.97153 3.08296
330 11 2 	-1.37993 3.05987 3.28677
331 11 2 	-1.47932 2.26109 2.83224
332 11 2 	-0.96531 2.74955 2.59170
333 11 2 	-1.18711 3.64309 2.87325
334 11 2 	-0.60129 2.64750 2.88614
335 11 2 	-1.03401 3.97615 3.13545
336 11 2 	-0.55721 3.80019 3.39362
337 11 2 	-0.26070 4.07610 3.10321
338 11 2 	-0.93699 3.48764 3.02555
339 11 2 	-1.29964 3.84662 3.14375
340 11 2 	-1.22973 4.30202 3.41884
341 11 3 	-1.26131 4.53280 2.42858
342 12 1 	0.00000 0.00000 0.00000
343 12 2 	-0.76788 0.87846 0.34885
344 12 2 	-0.99189 0.13427 -0.03735
345 12 2 	-0.95082 -0.15578 0.67567
346 12 2 	-0.88841 0.61362 -0.23957
347 12 2 	-1.09783 0.92284 -0.05188
348 12 2 	-0.94589 0.29571 0.20021
349 12 2 	-0.38263 0.71737 0.84910
350 12 2 	-0.17938 0.72536 1.37069
351 12 2 	-1.12171 1.13554 0.58382
352 12 2 	-1.54502 0.74336 1.30214
353 12 2 	-2.97353 1.45124 1.28648
354 12 2 	-3.42428 2.33696 0.37885
355 12 2 	-4.15924 1.87208 -0.09269
356 12 2 	-3.75386 1.62943 0.01254
357 12 2 	-4.43084 2.19699 0.29397
358 12 2 	-4.34862 1.52527 -0.13656
359 12 2 	-4.22292 1.43338 -1.43500
360 12 2 	-3.48949 1.49239 -0.47902
361 12 2 	-3.78946 0.62498 0.24528
362 12 2 	-2.63312 0.99066 0.36071
363 12 2 	-2.66074 0.80606 1.11539
364 12 2 	-2.16563 0.70588 1.67688
365 12 2 	-3.40935 0.06011 1.47814
366 12 2 	-3.35096 0.68944 1.86076
367 12 2 	-3.31439 0.94319 2.72645
368 12 2 	-3.06142 0.81487 2.34526
369 12 2 	-3.48532 0.15865 3.21949
370 12 2 	-5.04738 -0.54366 4.53504
371 12 2 	-4.74445 -0.74972 4.32521
372 12 3 	-5.14684 -1.40244 5.41274
373 13 1 	0.00000 0.00000 0.00000
374 13 2 	-1.21786 0.76654 -0.04248
375 13 2 	-1.50115 2.40209 -0.36965
376 13 2 	-1.45186 3.15087 -0.14616
377 13 2 	-1.99621 3.51383 -0.15621
378 13 2 	-2.42581 3.12339 -0.46971
379 13 2 	-1.46413 2.87142 -0.63119
380 13 2 	-3.17977 2.89341 -0.39493
381 13 2 	-1.94128 2.98283 0.06823
382 13 2 	-1.20228 2.89965 0.18298
383 13 2 	-1.72251 2.63882 -0.49538
384 13 2 	-2.19613 3.50554 -0.46390
385 13 2 	-0.78208 3.21253 0.16786
386 13 2 	-1.25180 3.29626 -0.06383
387 13 2 	-2.49568 3.13518 -1.16293
388 13 2 	-2.07287 3.03926 -0.60522
389 13 2 	-2.45716 3.53812 -1.08233
390 13 2 	-1.50230 4.07958 -1.00421
391 13 2 	-2.11061 4.08809 -0.53408
392 13 2 	-1.81051 3.65503 -1.40102
393 13 2 	-1.79000 4.49431 -1.96954
394 13 2 	-1.69228 3.72221 -1.09615
395 13 2 	-2.75566 2.49068 -0.97451
396 13 2 	-2.03586 3.09970 -0.90751
397 13 2 	-1.02313 3.86624 -0.59526
398 13 2 	-0.52864 2.90286 -0.65279
399 13 2 	-1.57808 2.91087 -1.36551
400 13 2 	-1.56266 2.72690 -2.23146
401 13 2 	-1.75640 2.97051 -2.29109
402 13 2 	-2.14306 3.01379 -2.24270
403 13 3 	-1.34295 2.72729 -2.83351
404 14 1 	0.00000 0.00000 0.00000
405 14 2 	-0.25012 -0.25952 -0.64510
406 14 2 	0.03842 -1.11445 -1.15965
407 14 2 	-0.40842 -0.39347 -1.18405
408 14 2 	-1.69083 -1.39673 -1.66223
409 14 2 	-2.85628 -0.46283 -2.18011
410 14 2 	-2.73907 -0.40284 -0.79631
411 14 2 	-2.68573 -1.12475 -1.72545
412 14 2 	-2.42472 -1.37140 -2.28447
413 14 2 	-2.13022 -0.92677 -2.88681
414 14 2 	-1.57939 -0.58143 -2.67313
415 14 2 	-1.64892 -0.48025 -2.44331
416 14 2 	-2.11641 -0.90753 -2.40526
417 14 2 	-2.82139 -0.18121 -1.45051
418 14 2 	-2.65992 -0.17412 -1.44440
419 14 2 	-1.95448 0.55557 -0.78940
420 14 2 	-2.26230 1.03719 -0.40264
421 14 2 	-2.72064 1.09589 -0.46872
422 14 2 	-3.38209 0.64004 -0.62260
423 14 2 	-3.06302 1.05940 -0.49488
424 14 2 	-2.77082 0.36587 -0.91007
425 14 2 	-2.69477 -0.61345 -0.62760
426 14 2 	-2.59281 -0.48197 -0.40548
427 14 2 	-3.18777 -1.52495 -0.77647
428 14 2 	-3.11701 -2.38009 -1.22499
429 14 2 	-2.77912 -2.90308 -1.15955
430 14 2 	-2.83020 -2.61691 -1.90768
431 14 2 	-2.13930 -2.99043 -1.75714
432 14 2 	-1.72488 -2.21145 -2.34700
433 14 2 	-1.77536 -2.78319 -1.93415
434 14 3 	-1.42928 -2.43837 -2.17784
435 15 1 	0.00000 0.00000 0.00000
436 15 2 	-0.42692 -0.70336 -0.21844
437 15 2 	-0.95685 -2.05323 -1.95565
438 15 2 	-0.30278 -2.38924 -2.58356
439 15 2 	0.10105 -1.74529 -2.24210
440 15 2 	0.64415 -2.65841 -1.89561
441 15 2 	0.73141 -3.38697 -0.77931
442 15 2 	0.66552 -2.94087 -0.55642
443 15 2 	0.78127 -3.19282 -0.27492
444 15 2 	0.57357 -2.54060 -0.19318
445 15 2 	1.47380 -2.57764 -0.48111
446 15 2 	1.92470 -3.26213 -0.39082
447 15 2 	1.58783 -3.94649 -0.43092
448 15 2 	0.98202 -3.11648 -0.87856
449 15 2 	1.32180 -3.53975 -1.11208
450 15 2 	0.33211 -2.92934 -0.69889
451 15 2 	0.28947 -3.04272 -1.63287
452 15 2 	0.94824 -3.19666 -1.93846
453 15 2 	0.09500 -2.16497 -2.06137
454 15 2 	-0.82518 -1.40343 -1.62125
455 15 2 	-0.23399 -1.38337 -1.77642
456 15 2 	-0.63019 -1.05804 -1.92991
457 15 2 	-0.62674 -0.59677 -2.44689
458 15 2 	-0.43769 -0.90662 -2.29521
459 15 2 	-1.00293 -0.32028 -1.75902
460 15 2 	-1.41323 -0.26257 -2.00895
461 15 2 	-2.24324 0.52224 -1.25123
462 15 2 	-3.10757 0.63155 -2.00466
463 15 2 	-3.58164 0.52478 -2.07442
464 15 2 	-4.70890 0.38475 -1.81472
465 15 3 	-4.15972 0.14454 -1.36029
466 16 1 	0.00000 0.00000 0.00000
467 16 2 	-0.08150 -0.49120 2.15676
468 16 2 	-0.48503 -0.99300 3.21299
469 16 2 	-0.33900 -1.09346 3.00812
470 16 2 	0.41677 -2.39043 3.37728
471 16 2 	0.47110 -2.33913 4.44202
472 16 2 	0.78657 -2.87179 4.28612
473 16 2 	1.41413 -2.49955 3.90232
474 16 2 	1.10659 -3.83708 3.25328
475 16 2 	1.38924 -3.63609 3.37498
476 16 2 	0.55448 -2.84054 4.65492
477 16 2 	1.00769 -3.29137 4.21131
478 16 2 	1.54706 -3.37551 3.62905
479 16 2 	1.58643 -3.48448 4.19485
480 16 2 	1.99324 -4.21670 4.56320
481 16 2 	2.22142 -3.84776 4.99818
482 16 2 	2.21757 -4.01082 4.66652
483 16 2 	2.56681 -3.83239 5.65588
484 16 2 	3.05160 -4.45641 4.70083
485 16 2 	2.80354 -4.61992 4.25766
486 16 2 	1.69960 -5.27811 3.33386
487 16 2 	2.45007 -4.86207 3.06097
488 16 2 	2.83081 -4.58212 3.43485
489 16 2 	2.72592 -3.92352 3.22120
490 16 2 	3.09571 -4.01871 3.39048
491 16 2 	2.10252 -4.08167 3.07346
492 16 2 	2.32867 -4.32488 3.29179
493 16 2 	2.84531 -3.68471 3.30437
494 16 2 	3.50571 -3.58372 2.89125
495 16 2 	3.20593 -2.89878 2.71940
496 16 3 	2.74396 -3.23721 3.03897
497 17 1 	0.00000 0.00000 0.00000
498 17 2 	-0.11639 -0.70920 0.71979
499 17 2 	-0.48469 0.10171 0.35943
500 17 2 	-0.43443 0.11811 1.01748
501 17 2 	-0.38232 0.55989 1.23208
502 17 2 	-0.27461 1.75254 1.64341
503 17 2 	-1.14934 0.98755 2.84488
504 17 2 	-0.45583 1.20761 3.80089
505 17 2 	-0.59491 2.37243 3.56466
506 17 2 	-1.01974 1.65509 4.10815
507 17 2 	-0.59291 1.56415 4.02608
508 17 2 	-0.20668 1.40360 3.64904
509 17 2 	0.11844 1.33383 3.84679
510 17 2 	0.49805 1.61980 4.61102
511 17 2 	0.49215 1.65446 3.78511
512 17 2 	0.38555 1.79998 3.00664
513 17 2 	0.80890 2.14175 3.68770
514 17 2 	0.59960 2.43036 2.61977
515 17 2 	1.41942 3.37863 3.33126
516 17 2 	2.04095 2.85117 4.29880
517 17 2 	2.59172 2.34944 4.33210
518 17 2 	2.73407 2.98525 3.84471
519 17 2 	4.10911 2.69283 4.30009
520 17 2 	4.39653 3.29163 4.00999
521 17 2 	4.33785 3.40883 3.52684
522 17 2 	3.82422 3.14198 3.45604
523 17 2 	3.62472 3.21177 2.74949
524 17 2 	3.17111 3.20864 2.48037
525 17 2 	3.14270 4.23506 2.22132
526 17 2 	3.46598 4.12501 2.04093
527 17 3 	4.13365 3.55467 1.59427
528 18 1 	0.00000 0.00000 0.00000
529 18 2 	-0.66155 -0.31331 0.11592
530 18 2 	-1.48670 0.61046 0.49029
531 18 2 	-1.49219 1.22502 0.61930
532 18 2 	-1.96751 0.31517 0.54830
533 18 2 	-2.47055 0.32309 -0.18419
534 18 2 	-2.48347 0.42805 -0.09979
535 18 2 	-1.78916 0.92707 -1.62777
536 18 2 	-2.20310 0.40046 -1.84904
537 18 2 	-2.20778 -0.10306 -1.63480
538 18 2 	-2.48340 -0.18200 -2.71912
539 18 2 	-2.47660 1.01237 -3.20424
540 18 2 	-3.33596 0.30328 -2.60369
541 18 2 	-4.31535 0.34384 -2.14051
542 18 2 	-4.56680 -0.44953 -2.92996
543 18 2 	-5.22456 -0.69228 -2.57241
544 18 2 	-5.45110 0.26961 -2.76094
545 18 2 	-5.51317 -0.30919 -1.56579
546 18 2 	-6.08849 -0.61505 -1.66979
547 18 2 	-6.01225 -0.67675 -1.56934
548 18 2 	-5.71242 0.37297 -1.72329
549 18 2 	-6.16232 0.54607 -2.13568
550 18 2 	-6.35161 0.83667 -0.90152
551 18 2 	-5.68139 0.79437 0.22092
552 18 2 	-6.18748 1.31348 -0.19842
553 18 2 	-5.43748 0.82875 -0.65159
554 18 2 	-5.97783 1.37821 -1.98575
555 18 2 	-6.13891 0.59313 -1.84389
556 18 2 	-5.96304 -0.18661 -1.63336
557 18 2 	-4.90649 -0.71321 -1.31004
558 18 3 	-5.13297 -0.59008 -2.41857
559 19 1 	0.00000 0.00000 0.00000
560 19 2 	0.09619 0.52619 0.49783
561 19 2 	-0.08463 0.36949 -0.07755
562 19 2 	0.70419 0.93326 -0.06405
563 19 2 	0.58648 1.42731 -0.40869
564 19 2 	0.75743 0.88111 -1.06912
565 19 2 	0.73625 0.76021 -1.04713
566 19 2 	-0.54124 0.73910 -0.92875
567 19 2 	-0.55612 0.54601 -1.54000
568 19 2 	-0.61726 0.48997 -1.65519
569 19 2 	0.17279 0.92366 -1.52161
570 19 2 	-0.49564 2.69105 -0.87214
571 19 2 	-0.44806 1.75816 -0.81733
572 19 2 	0.51744 3.62632 -0.18366
573 19 2 	1.19212 3.84070 -0.51518
574 19 2 	0.54585 3.76978 -0.05850
575 19 2 	0.28284 3.53432 -0.74238
576 19 2 	-0.01622 2.30291 -0.68527
577 19 2 	1.04854 2.60975 0.24431
578 19 2 	0.67100 2.84570 -0.08531
579 19 2 	0.57016 2.49194 -0.17006
580 19 2 	0.96115 2.02569 -0.56382
581 19 2 	0.32924 2.30202 0.65800
582 19 2 	0.30268 2.76028 1.09544
583 19 2 	1.22884 2.24976 0.58284
584 19 2 	1.52682 3.85953 1.37192
585 19 2 	1.58929 3.43777 1.77905
586 19 2 	0.98757 4.39879 2.27644
587 19 2 	0.52367 5.10593 2.74459
588 19 2 	0.27269 3.80439 2.88661
589 19 3 	-0.28329 3.78949 2.87050
590 20 1 	0.00000 0.00000 0.00000
591 20 2 	0.30926 0.13288 -0.31425
592 20 2 	0.75443 -0.44205 -0.21805
593 20 2 	0.50207 -0.70383 -0.76082
594 20 2 	0.04608 -1.21244 -0.65192
595 20 2 	0.23197 -2.08920 -0.70878
596 20 2 	0.54474 -2.12944 -0.60007
597 20 2 	0.24999 -2.39316 0.11081
598 20 2 	-0.38178 -2.36245 -0.05922
599 20 2 	-2.40740 -2.20904 -0.44565
600 20 2 	-2.32165 -1.68658 0.30004
601 20 2 	-1.91208 -1.21695 -0.15588
602 20 2 	-1.74678 -1.07369 0.34124
603 20 2 	-2.18664 -1.14202 -0.45543
604 20 2 	-1.45264 -0.79043 -0.85530
605 20 2 	-1.17571 -1.04019 -1.19989
606 20 2 	-1.95060 -0.73316 -1.15795
607 20 2 	-1.73718 -0.66188 -0.96815
608 20 2 	-1.50695 -0.83515 -0.76734
609 20 2 	-2.68847 -0.60500 -1.17275
610 20 2 	-2.18133 -0.70897 -1.31383
611 20 2 	-1.96638 -0.15589 -1.78591
612 20 2 	-3.27674 -1.03274 -1.13851
613 20 2 	-3.77304 -0.85016 -1.39035
614 20 2 	-4.88394 -0.44975 -1.79866
615 20 2 	-3.61232 -0.71407 -1.81393
616 20 2 	-4.36732 -1.30897 -1.30235
617 20 2 	-4.73271 -1.75183 -0.91003
618 20 2 	-4.25302 -1.72283 -1.58064
619 20 2 	-4.30351 -2.11225 -1.31985
620 20 3 	-4.67140 -1.84702 -1.35756
621 21 1 	0.00000 0.00000 0.00000
622 21 2 	-0.36966 0.23075 -0.34683
623 21 2 	0.08746 -0.02532 -0.85397
624 21 2 	0.90132 -0.23022 -0.63949
625 21 2 	0.79564 -0.43739 -0.98882
626 21 2 	0.66442 -0.57235 -1.03575
627 21 2 	0.50086 -0.72489 -0.25605
628 21 2 	0.82309 -0.73857 -0.98210
629 21 2 	0.95182 -0.64500 -1.45406
630 21 2 	1.49605 -1.54739 -0.70693
631 21 2 	0.94266 -1.87270 -0.64624
632 21 2 	0.67446 -1.83204 -0.68919
633 21 2 	0.96065 -2.45723 -0.27204
634 21 2 	0.43149 -3.09587 0.34821
635 21 2 	0.69559 -2.91996 1.45570
636 21 2 	0.29425 -3.20185 1.52049
637 21 2 	0.18195 -4.34617 1.38010
638 21 2 	-0.81039 -5.14165 1.20047
639 21 2 	-0.99416 -6.01516 1.65215
640 21 2 	-0.74693 -5.86672 1.37188
641 21 2 	-0.87009 -6.16849 1.41251
642 21 2 	-0.78561 -5.65017 1.10997
643 21 2 	-0.56927 -5.95410 1.30289
644 21 2 	-0.45552 -5.87676 0.52589
645 21 2 	-0.95505 -5.47803 1.75898
646 21 2 	-1.08328 -6.05798 1.09376
647 21 2 	-0.69182 -5.11875 0.39971
648 21 2 	0.25344 -5.89285 0.90182
649 21 2 	0.16279 -5.59802 1.05002
650 21 2 	-0.96459 -6.80838 1.11259
651 21 3 	-1.15346 -7.69490 0.72691
652 22 1 	0.00000 0.00000 0.00000
653 22 2 	-0.36196 0.03538 0.23133
654 22 2 	-1.00406 -0.20496 -0.27098
655 22 2 	-1.38981 -0.41947 -1.03270
656 22 2 	-1.89072 -0.68775 -1.35769
657 22 2 	-1.91469 -0.70238 -2.12765
658 22 2 	-1.67606 -0.70121 -2.06314
659 22 2 	-2.44085 -1.75943 -2.18826
660 22 2 	-0.98511 -2.90674 -2.19128
661 22 2 	-1.77001 -3.68467 -2.99377
662 22 2 	-2.30443 -3.46331 -2.37824
663 22 2 	-2.60379 -3.72510 -3.15340
664 22 2 	-2.15432 -3.71879 -3.65925
665 22 2 	-2.53464 -4.23292 -4.45062
666 22 2 	-1.31257 -4.50306 -5.75331
667 22 2 	-1.34073 -4.88464 -6.32514
668 22 2 	-0.90815 -5.54761 -5.40280
669 22 2 	0.02279 -4.93747 -5.07116
670 22 2 	0.22147 -3.94965 -4.82274
671 22 2 	0.51932 -3.59023 -5.13554
672 22 2 	0.56061 -4.16698 -5.00378
673 22 2 	0.58333 -5.15634 -5.02444
674 22 2 	-0.01250 -5.35347 -5.64523
675 22 2 	-0.24741 -4.73543 -5.40483
676 22 2 	-0.55051 -3.56335 -5.83651
677 22 2 	-1.06727 -3.78455 -5.62444
678 22 2 	-1.26689 -3.04456 -4.54215
679 22 2 	-1.06263 -1.81506 -5.25746
680 22 2 	-0.56569 -2.07675 -5.11919
681 22 2 	-1.62083 -2.48188 -5.57487
682 22 3 	-1.04711 -2.28889 -5.05626
683 23 1 	0.00000 0.00000 0.00000
684 23 2 	0.49389 0.16820 0.39789
685 23 2 	0.93498 0.50927 0.31672
686 23 2 	1.14458 -0.16157 0.64494
687 23 2 	0.04707 -0.38449 0.57996
688 23 2 	-0.19037 -0.19039 0.75643
689 23 2 	-0.46970 0.26207 1.22737
690 23 2 	-0.63153 -0.09818 0.71933
691 23 2 	-0.60390 -1.18936 0.98589
692 23 2 	-0.92702 -0.31122 1.54782
693 23 2 	0.63808 0.54267 2.48760
694 23 2 	1.08582 1.30828 2.02086
695 23 2 	0.49304 2.93795 2.39454
696 23 2 	-0.46742 3.04512 2.53914
697 23 2 	-0.55237 3.83547 1.47681
698 23 2 	-0.66277 4.33083 1.30584
699 23 2 	-0.73006 4.81147 1.02527
700 23 2 	-0.78347 3.86106 1.67604
701 23 2 	-1.00156 3.44929 1.85521
702 23 2 	-0.74243 3.12281 1.46800
703 23 2 	-0.41193 3.15927 1.11588
704 23 2 	0.20552 3.63545 0.52066
705 23 2 	0.80681 4.09994 0.42518
706 23 2 	0.83261 3.13587 0.70349
707 23 2 	1.25635 3.00150 0.72451
708 23 2 	1.59684 3.48033 1.48025
709 23 2 	2.09794 3.31810 0.68575
710 23 2 	1.58096 2.80093 0.77032
711 23 2 	1.67158 1.54049 0.96876
712 23 2 	1.52888 1.42491 0.40971
713 23 3 	1.12074 0.49469 1.21692
714 24 1 	0.00000 0.00000 0.00000
715 24 2 	-0.05762 0.04076 -0.87631
716 24 2 	1.22813 -0.19797 -1.84000
717 24 2 	1.09148 -0.35888 -1.40511
718 24 2 	0.77909 0.18491 -1.01968
719 24 2 	0.18911 0.11287 -0.86134
720 24 2 	0.31017 -0.59713 -1.89925
721 24 2 	0.27639 -0.35512 -1.98386
722 24 2 	0.02183 -0.36687 -2.27083
723 24 2 	1.39932 0.67703 -1.29165
724 24 2 	0.48086 1.52670 -1.69575
725 24 2 	0.56136 0.62910 -2.75865
726 24 2 	0.44957 -0.04677 -2.40614
727 24 2 	0.07421 -1.17498 -2.00177
728 24 2 	-0.31177 -2.23635 -2.18946
729 24 2 	-1.76666 -1.72754 -2.09915
730 24 2 	-0.95681 -1.97939 -2.48389
731 24 2 	-1.37476 -2.56173 -2.81444
732 24 2 	-1.02211 -2.70559 -2.42992
733 24 2 	0.04624 -3.45707 -2.53903
734 24 2 	0.01181 -3.85869 -2.50030
735 24 2 	1.02963 -3.37848 -2.45675
736 24 2 	0.19305 -3.41447 -1.95678
737 24 2 	-0.32829 -2.51272 -3.93423
738 24 2 	-0.10611 -2.42078 -3.04223
739 24 2 	-0.24896 -1.87390 -3.31004
740 24 2 	-0.41312 -2.55516 -3.22486
741 24 2 	-0.13466 -2.38207 -3.78062
742 24 2 	0.06779 -2.56766 -3.34883
743 24 2 	-0.82945 -2.34677 -3.26664
744 24 3 	0.08720 -2.19819 -2.05083
745 25 1 	0.00000 0.00000 0.00000
746 25 2 	0.40191 1.30348 -0.92379
747 25 2 	0.03668 2.60236 -1.23709
748 25 2 	1.25234 2.63082 -1.03340
749 25 2 	1.22155 3.11699 -0.72353
750 25 2 	0.71420 3.10048 -0.65196
751 25 2 	2.28751 2.99747 0.09105
752 25 2 	2.26843 3.35827 -0.03792
753 25 2 	2.45676 3.10361 0.24985
754 25 2 	1.78372 2.82827 0.69087
755 25 2 	0.93351 2.55078 0.97087
756 25 2 	1.78493 1.76209 1.05977
757 25 2 	1.48517 1.03363 0.14843
758 25 2 	0.78141 0.68384 -0.12265
759 25 2 	1.51721 0.45547 1.07721
760 25 2 	1.59531 1.57251 1.31844
761 25 2 	2.82903 2.36010 0.29271
762 25 2 	2.89450 2.28656 0.85603
763 25 2 	3.55844 2.27918 -0.28870
764 25 2 	3.31140 2.61118 -0.51880
765 25 2 	2.63073 2.73485 -0.88729
766 25 2 	2.35992 2.85052 0.46160
767 25 2 	2.79804 3.12586 -0.83412
768 25 2 	3.90015 3.15300 -1.18794
769 25 2 	4.22730 3.44476 -0.97894
770 25 2 	3.44562 2.69023 -0.74091
771 25 2 	4.02730 3.10443 -0.29738
772 25 2 	3.87507 2.22418 -0.11982
773 25 2 	4.46530 3.24375 0.15206
774 25 2 	5.71613 3.45504 0.00730
775 25 3 	6.42648 2.67112 -0.72540
776 26 1 	0.00000 0.00000 0.00000
777 26 2 	-0.00929 -0.67558 -0.18035
778 26 2 	-0.15665 -0.97136 0.36559
779 26 2 	-0.43920 -1.23514 1.65068
780 26 2 	-1.55645 -1.37920 1.48229
781 26 2 	-1.19377 -1.91960 1.71301
782 26 2 	-0.93976 -2.40338 0.87412
783 26 2 	-0.87813 -2.05963 0.76111
784 26 2 	-2.30491 -1.10911 1.72086
785 26 2 	-2.59519 -1.00159 0.97794
786 26 2 	-3.15654 -1.45571 1.25141
787 26 2 	-3.01111 -2.51298 0.94105
788 26 2 	-2.32488 -2.84297 0.26696
789 26 2 	-2.44616 -3.04165 -0.88616
790 26 2 	-2.40471 -3.03550 -0.80082
791 26 2 	-1.53701 -2.71110 0.32480
792 26 2 	-0.97726 -1.96801 1.29957
793 26 2 	-0.85554 -2.45641 1.83840
794 26 2 	-1.62151 -1.54812 0.37456
795 26 2 	-0.48833 -1.81975 0.19170
796 26 2 	-0.25615 -1.51932 0.78203
797 26 2 	-0.50275 -1.45560 0.54770
798 26 2 	-0.01210 -1.92914 0.20011
799 26 2 	1.12872 -1.03812 -0.07166
800 26 2 	1.59872 -1.28184 0.50349
801 26 2 	1.33530 -2.59400 0.42447
802 26 2 	1.61555 -3.13631 0.04355
803 26 2 	1.94336 -3.23369 -0.23150
804 26 2 	2.69212 -2.70288 -1.11792
805 26 2 	2.02933 -2.69213 -0.42255
806 26 3 	1.82707 -3.26844 0.11609
807 27 1 	0.00000 0.00000 0.00000
808 27 2 	0.44848 0.57645 -0.31466
809 27 2 	-0.37516 0.09291 -0.83415
810 27 2 	-0.53316 0.13177 -1.20987
811 27 2 	-0.32949 -0.41359 -1.86053
812 27 2 	1.43469 -0.73178 -2.08222
813 27 2 	1.26683 -0.58020 -1.78069
814 27 2 	0.89256 -0.90485 -0.93294
815 27 2 	1.18397 -0.30261 -1.01766
816 27 2 	0.77665 -0.02873 -0.53913
817 27 2 	0.87345 0.77056 -0.83798
818 27 2 	1.57344 0.80412 0.70817
819 27 2 	1.09296 0.53006 0.21429
820 27 2 	1.45635 -0.05576 0.13720
821 27 2 	2.03670 -0.55920 0.17777
822 27 2 	1.75424 -1.37075 -0.30553
823 27 2 	1.70407 -1.15311 -1.19892
824 27 2 	1.35015 -0.65360 -1.17921
825 27 2 	0.58709 -0.87461 -1.26012
826 27 2 	0.96425 -0.74242 -1.23929
827 27 2 	0.82989 -0.07486 -1.31666
828 27 2 	0.96095 0.07349 -0.84490
829 27 2 	0.79279 -0.84930 -0.41826
830 27 2 	0.80148 -0.45518 -0.85302
831 27 2 	0.84298 -0.49497 -0.36164
832 27 2 	1.40343 0.29408 0.23809
833 27 2 	2.31892 1.12275 0.01967
834 27 2 	1.73861 1.37013 0.54826
835 27 2 	1.71551 1.59875 1.51194
836 27 2 	0.59447 1.48921 1.15321
837 27 3 	0.58643 1.61171 0.84779
838 28 1 	0.00000 0.00000 0.00000
839 28 2 	0.17900 -0.08972 -0.16737
840 28 2 	-0.52605 -0.85807 -1.48310
841 28 2 	-0.55212 -1.31996 -1.16609
842 28 2 	-0.46244 -2.23299 -1.79904
843 28 2 	-0.27925 -3.39360 -2.38749
844 28 2 	0.56048 -2.56602 -1.58118
845 28 2 	0.32116 -3.17498 -1.48067
846 28 2 	1.15351 -3.30973 -1.76845
847 28 2 	0.52588 -3.30286 -0.47466