LAMMPS Description

15500 atoms
15000 bonds

3 atom types
1 bond types

-10 40 xlo xhi
-20 20 ylo yhi
-20 20 zlo zhi

Masses

1 1
2 1
3 1

Atoms # id mol type xu yu zu

1 1 1 	0.00000 0.00000 0.00000
2 1 2 	-0.10094 -0.41320 0.00000
3 1 2 	-0.71212 0.67572 0.00000
4 1 2 	-0.31600 0.59516 0.00000
5 1 2 	0.16359 -0.40895 0.00000
6 1 2 	-0.77484 -0.15284 0.00000
7 1 2 	-1.27730 0.01684 0.00000
8 1 2 	-0.78143 -0.05577 0.00000
9 1 2 	-0.58876 -0.38800 0.00000
10 1 2 	-0.55491 -1.16754 0.00000
11 1 2 	0.77024 -1.47967 0.00000
12 1 2 	0.91365 -2.33733 0.00000
13 1 2 	1.05963 -1.87598 0.00000
14 1 2 	1.33538 -0.60751 0.00000
15 1 2 	1.78540 -0.39930 0.00000
16 1 2 	1.89510 -0.96377 0.00000
17 1 2 	2.58922 -0.69749 0.00000
18 1 2 	2.41255 -0.87176 0.00000
19 1 2 	3.00264 -0.51146 0.00000
20 1 2 	3.01464 -0.71091 0.00000
21 1 2 	4.04277 -1.07400 0.00000
22 1 2 	4.13572 -0.07534 0.00000
23 1 2 	4.01222 1.18061 0.00000
24 1 2 	4.64536 0.46104 0.00000
25 1 2 	4.72179 0.46711 0.00000
26 1 2 	3.99824 0.08199 0.00000
27 1 2 	3.30436 0.42183 0.00000
28 1 2 	3.35784 -0.69808 0.00000
29 1 2 	3.66171 -0.75848 0.00000
30 1 2 	4.97317 0.56655 0.00000
31 1 3 	4.75070 0.01985 0.00000
32 2 1 	0.00000 0.00000 0.00000
33 2 2 	0.03691 0.06742 0.00000
34 2 2 	-0.71775 -0.07783 0.00000
35 2 2 	-1.53118 -0.07631 0.00000
36 2 2 	-1.18198 0.40346 0.00000
37 2 2 	-0.14486 -0.16732 0.00000
38 2 2 	0.35768 0.81367 0.00000
39 2 2 	0.20800 0.71716 0.00000
40 2 2 	0.09287 0.28421 0.00000
41 2 2 	0.24486 0.19081 0.00000
42 2 2 	-0.44738 -0.30551 0.00000
43 2 2 	0.16522 0.85605 0.00000
44 2 2 	-0.83121 0.82969 0.00000
45 2 2 	-1.45648 0.65721 0.00000
46 2 2 	-1.51773 0.91856 0.00000
47 2 2 	-1.46019 0.89358 0.00000
48 2 2 	-1.29368 0.52056 0.00000
49 2 2 	-2.37099 0.91054 0.00000
50 2 2 	-2.60377 1.59769 0.00000
51 2 2 	-2.29172 2.12819 0.00000
52 2 2 	-1.61130 2.14573 0.00000
53 2 2 	-2.17931 1.67712 0.00000
54 2 2 	-3.18419 2.29351 0.00000
55 2 2 	-2.93303 1.56313 0.00000
56 2 2 	-2.94479 2.44967 0.00000
57 2 2 	-2.86560 1.16778 0.00000
58 2 2 	-2.88802 0.19620 0.00000
59 2 2 	-3.16365 0.44445 0.00000
60 2 2 	-2.65436 0.45749 0.00000
61 2 2 	-1.66004 -0.36388 0.00000
62 2 3 	-1.26510 0.61646 0.00000
63 3 1 	0.00000 0.00000 0.00000
64 3 2 	-0.91032 0.23373 0.00000
65 3 2 	-0.24064 1.50924 0.00000
66 3 2 	-0.55434 2.08999 0.00000
67 3 2 	-0.32696 1.85672 0.00000
68 3 2 	-0.04781 0.99776 0.00000
69 3 2 	-0.09416 1.49554 0.00000
70 3 2 	0.87014 1.10597 0.00000
71 3 2 	0.94644 0.85947 0.00000
72 3 2 	0.87608 1.76251 0.00000
73 3 2 	1.21327 2.07894 0.00000
74 3 2 	0.66201 2.88843 0.00000
75 3 2 	1.32306 3.95037 0.00000
76 3 2 	1.89313 4.92032 0.00000
77 3 2 	2.64256 3.93368 0.00000
78 3 2 	1.89431 3.69877 0.00000
79 3 2 	2.42793 4.35883 0.00000
80 3 2 	2.75298 4.47824 0.00000
81 3 2 	2.07455 4.55143 0.00000
82 3 2 	2.12327 4.44279 0.00000
83 3 2 	1.34981 4.48724 0.00000
84 3 2 	1.92018 4.61398 0.00000
85 3 2 	1.68069 3.76952 0.00000
86 3 2 	1.41788 3.25097 0.00000
87 3 2 	1.29823 3.24820 0.00000
88 3 2 	1.08155 4.57182 0.00000
89 3 2 	1.74943 4.84816 0.00000
90 3 2 	1.35459 4.31448 0.00000
91 3 2 	1.34006 4.31368 0.00000
92 3 2 	1.55147 4.65846 0.00000
93 3 3 	1.38817 5.09765 0.00000
94 4 1 	0.00000 0.00000 0.00000
95 4 2 	0.49923 -0.74634 0.00000
96 4 2 	0.45611 0.13469 0.00000
97 4 2 	-0.26186 0.38573 0.00000
98 4 2 	-1.17010 0.21494 0.00000
99 4 2 	-1.26018 -0.56338 0.00000
100 4 2 	-0.39353 -0.87097 0.00000
101 4 2 	-0.23794 -1.43010 0.00000
102 4 2 	-1.12728 -1.18582 0.00000
103 4 2 	-0.84609 -0.37347 0.00000
104 4 2 	-0.66948 -0.42751 0.00000
105 4 2 	-1.46776 -0.77992 0.00000
106 4 2 	-1.40617 -0.49802 0.00000
107 4 2 	-2.03363 -0.18228 0.00000
108 4 2 	-2.87308 -1.09202 0.00000
109 4 2 	-2.84429 -1.24028 0.00000
110 4 2 	-2.81140 -0.56008 0.00000
111 4 2 	-2.65793 -0.58964 0.00000
112 4 2 	-2.11067 -0.45632 0.00000
113 4 2 	-1.93308 -1.55085 0.00000
114 4 2 	-0.49408 -1.49079 0.00000
115 4 2 	-0.19749 -0.78639 0.00000
116 4 2 	0.09899 -0.57289 0.00000
117 4 2 	-0.41868 -1.53277 0.00000
118 4 2 	0.76560 -1.46207 0.00000
119 4 2 	0.71297 -1.45448 0.00000
120 4 2 	1.79153 -0.83795 0.00000
121 4 2 	1.14616 -0.88278 0.00000
122 4 2 	0.39424 -0.73912 0.00000
123 4 2 	-0.14545 -0.95938 0.00000
124 4 3 	0.19904 -0.96541 0.00000
125 5 1 	0.00000 0.00000 0.00000
126 5 2 	0.52747 -0.53914 0.00000
127 5 2 	0.63154 -1.50025 0.00000
128 5 2 	0.84856 -1.54528 0.00000
129 5 2 	0.61894 -1.03305 0.00000
130 5 2 	1.73021 -1.03678 0.00000
131 5 2 	1.42786 -1.63251 0.00000
132 5 2 	2.83378 -1.30536 0.00000
133 5 2 	2.72825 -0.63921 0.00000
134 5 2 	2.61545 -0.35620 0.00000
135 5 2 	2.52069 -1.13417 0.00000
136 5 2 	3.44355 -0.58052 0.00000
137 5 2 	3.37210 -0.61491 0.00000
138 5 2 	3.18254 -0.83332 0.00000
139 5 2 	3.96341 -1.18751 0.00000
140 5 2 	2.96669 -1.18852 0.00000
141 5 2 	3.73307 -0.92642 0.00000
142 5 2 	2.95517 -0.68907 0.00000
143 5 2 	2.50973 0.22890 0.00000
144 5 2 	1.00716 0.43727 0.00000
145 5 2 	1.90069 0.62705 0.00000
146 5 2 	1.53911 1.52327 0.00000
147 5 2 	1.46945 2.17964 0.00000
148 5 2 	1.46832 2.22221 0.00000
149 5 2 	1.21391 2.69334 0.00000
150 5 2 	1.94026 2.80751 0.00000
151 5 2 	1.65191 3.03064 0.00000
152 5 2 	1.14629 2.18759 0.00000
153 5 2 	1.38536 2.72900 0.00000
154 5 2 	1.40028 3.31348 0.00000
155 5 3 	1.83608 3.88668 0.00000
156 6 1 	0.00000 0.00000 0.00000
157 6 2 	0.16252 0.09599 0.00000
158 6 2 	-0.52585 1.11278 0.00000
159 6 2 	-0.03044 1.20135 0.00000
160 6 2 	1.18036 0.70624 0.00000
161 6 2 	1.26306 1.43062 0.00000
162 6 2 	1.26316 0.95519 0.00000
163 6 2 	0.81490 1.14207 0.00000
164 6 2 	0.71832 0.27329 0.00000
165 6 2 	1.37378 0.90525 0.00000
166 6 2 	0.67063 0.66875 0.00000
167 6 2 	-0.32124 -0.25069 0.00000
168 6 2 	-0.47947 -0.71995 0.00000
169 6 2 	0.85245 -2.13636 0.00000
170 6 2 	0.54035 -2.44108 0.00000
171 6 2 	-0.37939 -2.63367 0.00000
172 6 2 	-1.10531 -2.38351 0.00000
173 6 2 	-0.51123 -1.78925 0.00000
174 6 2 	-0.46891 -1.75862 0.00000
175 6 2 	-1.32568 -0.99010 0.00000
176 6 2 	-1.13227 -0.62509 0.00000
177 6 2 	-2.36300 -0.32979 0.00000
178 6 2 	-2.36001 0.43144 0.00000
179 6 2 	-3.04857 -0.45725 0.00000
180 6 2 	-2.85917 -0.09854 0.00000
181 6 2 	-3.01845 -0.97675 0.00000
182 6 2 	-3.64504 -0.19161 0.00000
183 6 2 	-3.69023 -0.66818 0.00000
184 6 2 	-3.72017 0.49781 0.00000
185 6 2 	-2.84057 1.21440 0.00000
186 6 3 	-1.92852 0.27769 0.00000
187 7 1 	0.00000 0.00000 0.00000
188 7 2 	-0.08056 -0.02191 0.00000
189 7 2 	-0.63837 -0.76435 0.00000
190 7 2 	0.23080 -0.33326 0.00000
191 7 2 	1.05712 -0.97477 0.00000
192 7 2 	0.31702 -0.59406 0.00000
193 7 2 	-0.05462 -0.22018 0.00000
194 7 2 	-0.26360 0.48620 0.00000
195 7 2 	0.63395 1.36348 0.00000
196 7 2 	-0.31659 0.99587 0.00000
197 7 2 	-0.30203 -0.42887 0.00000
198 7 2 	0.74491 -0.48575 0.00000
199 7 2 	0.42649 0.78845 0.00000
200 7 2 	1.49266 0.39024 0.00000
201 7 2 	1.32940 0.95826 0.00000
202 7 2 	0.74153 1.03148 0.00000
203 7 2 	0.41135 0.55697 0.00000
204 7 2 	-0.11991 0.23504 0.00000
205 7 2 	-0.17278 0.29282 0.00000
206 7 2 	-0.38113 -0.68802 0.00000
207 7 2 	-0.26828 -0.95875 0.00000
208 7 2 	-0.68043 0.25689 0.00000
209 7 2 	-1.37444 -1.00916 0.00000
210 7 2 	-1.66845 -1.25583 0.00000
211 7 2 	-0.47866 -0.77272 0.00000
212 7 2 	-0.45508 -0.75958 0.00000
213 7 2 	0.63006 -1.12245 0.00000
214 7 2 	0.48239 -1.79623 0.00000
215 7 2 	0.14857 -1.33544 0.00000
216 7 2 	-0.99527 -1.43173 0.00000
217 7 3 	-1.10448 -2.78820 0.00000
218 8 1 	0.00000 0.00000 0.00000
219 8 2 	-0.61739 -0.13386 0.00000
220 8 2 	-0.23276 -0.01760 0.00000
221 8 2 	-0.85279 -0.14466 0.00000
222 8 2 	-0.37743 -1.61565 0.00000
223 8 2 	-1.29462 -2.72363 0.00000
224 8 2 	-1.20546 -1.61089 0.00000
225 8 2 	-2.23001 -2.17340 0.00000
226 8 2 	-2.71946 -1.83723 0.00000
227 8 2 	-2.28216 -2.08345 0.00000
228 8 2 	-2.37256 -2.09099 0.00000
229 8 2 	-3.60001 -2.49813 0.00000
230 8 2 	-4.05847 -2.33009 0.00000
231 8 2 	-3.57867 -2.44396 0.00000
232 8 2 	-3.11226 -2.36751 0.00000
233 8 2 	-2.05960 -1.97782 0.00000
234 8 2 	-2.73778 -2.05570 0.00000
235 8 2 	-2.22826 -2.18074 0.00000
236 8 2 	-1.63588 -1.94433 0.00000
237 8 2 	-1.24801 -2.42408 0.00000
238 8 2 	-1.45609 -2.97535 0.00000
239 8 2 	-1.86791 -2.88275 0.00000
240 8 2 	-2.30697 -3.15302 0.00000
241 8 2 	-2.09433 -3.07315 0.00000
242 8 2 	-2.12855 -3.04355 0.00000
243 8 2 	-2.56710 -2.90089 0.00000
244 8 2 	-1.48796 -1.65058 0.00000
245 8 2 	-1.63619 -0.62326 0.00000
246 8 2 	-1.96492 -1.03021 0.00000
247 8 2 	-1.79982 -1.33349 0.00000
248 8 3 	-1.66361 -1.19294 0.00000
249 9 1 	0.00000 0.00000 0.00000
250 9 2 	0.01522 0.14427 0.00000
251 9 2 	0.34392 -0.21625 0.00000
252 9 2 	-0.13336 0.09446 0.00000
253 9 2 	-0.29758 -0.29376 0.00000
254 9 2 	-0.81417 -0.49386 0.00000
255 9 2 	-0.93422 -0.04333 0.00000
256 9 2 	-1.02947 0.04480 0.00000
257 9 2 	-1.04513 -0.56005 0.00000
258 9 2 	-0.55338 -0.44407 0.00000
259 9 2 	-0.96597 -1.14236 0.00000
260 9 2 	-0.75415 -0.77392 0.00000
261 9 2 	-0.95739 -0.45470 0.00000
262 9 2 	-1.13370 -0.34882 0.00000
263 9 2 	-1.13623 -0.96711 0.00000
264 9 2 	-1.01251 -1.07136 0.00000
265 9 2 	-1.02673 -1.41086 0.00000
266 9 2 	-1.20321 -0.48320 0.00000
267 9 2 	-0.86540 -0.45532 0.00000
268 9 2 	-1.46108 -1.01909 0.00000
269 9 2 	-1.53490 -1.96814 0.00000
270 9 2 	-1.71438 -2.01077 0.00000
271 9 2 	-2.09088 -1.59493 0.00000
272 9 2 	-2.08120 -1.61500 0.00000
273 9 2 	-2.31169 -2.18554 0.00000
274 9 2 	-2.67165 -2.31910 0.00000
275 9 2 	-3.03802 -1.50941 0.00000
276 9 2 	-2.84401 -1.33516 0.00000
277 9 2 	-4.02994 -1.44039 0.00000
278 9 2 	-4.72978 -1.51931 0.00000
279 9 3 	-4.63270 -0.71707 0.00000
280 10 1 	0.00000 0.00000 0.00000
281 10 2 	-0.68242 0.72487 0.00000
282 10 2 	-1.45691 0.96204 0.00000
283 10 2 	-2.51258 1.41573 0.00000
284 10 2 	-2.36327 1.50913 0.00000
285 10 2 	-2.21094 1.14672 0.00000
286 10 2 	-2.72137 1.41244 0.00000
287 10 2 	-2.75378 0.91564 0.00000
288 10 2 	-2.89817 0.42124 0.00000
289 10 2 	-3.18989 0.88439 0.00000
290 10 2 	-4.40789 0.07076 0.00000
291 10 2 	-4.45280 -0.20710 0.00000
292 10 2 	-5.60822 -0.60108 0.00000
293 10 2 	-5.18007 -1.54765 0.00000
294 10 2 	-5.35013 -1.29438 0.00000
295 10 2 	-5.33062 -1.23809 0.00000
296 10 2 	-5.09621 -2.07881 0.00000
297 10 2 	-5.03655 -2.48903 0.00000
298 10 2 	-4.76450 -2.81129 0.00000
299 10 2 	-3.67094 -2.20343 0.00000
300 10 2 	-2.44546 -2.06303 0.00000
301 10 2 	-2.26385 -1.97080 0.00000
302 10 2 	-1.08821 -1.06542 0.00000
303 10 2 	-1.39806 -2.37586 0.00000
304 10 2 	-1.16765 -1.19497 0.00000
305 10 2 	-1.51653 -1.87036 0.00000
306 10 2 	-1.30254 -2.51046 0.00000
307 10 2 	-1.03098 -3.53572 0.00000
308 10 2 	-1.32107 -4.00801 0.00000
309 10 2 	-1.02396 -4.26562 0.00000
310 10 3 	-0.53267 -4.76427 0.00000
311 11 1 	0.00000 0.00000 0.00000
312 11 2 	-0.18477 0.67942 0.00000
313 11 2 	0.50884 1.09262 0.00000
314 11 2 	0.36857 0.34011 0.00000
315 11 2 	0.45176 0.58406 0.00000
316 11 2 	0.15515 0.74790 0.00000
317 11 2 	0.22787 0.12832 0.00000
318 11 2 	-0.34632 0.83865 0.00000
319 11 2 	-0.78337 0.24688 0.00000
320 11 2 	-1.37824 0.14314 0.00000
321 11 2 	-1.29277 -0.15621 0.00000
322 11 2 	-1.28386 -0.16290 0.00000
323 11 2 	-2.00540 -1.08559 0.00000
324 11 2 	-0.76994 -0.98785 0.00000
325 11 2 	-1.47592 -0.25775 0.00000
326 11 2 	-1.47583 -0.06151 0.00000
327 11 2 	-0.90671 0.90729 0.00000
328 11 2 	-0.35323 -0.74584 0.00000
329 11 2 	-0.57470 -0.54149 0.00000
330 11 2 	-0.30974 -0.78858 0.00000
331 11 2 	0.80850 -0.93671 0.00000
332 11 2 	0.13124 -1.23989 0.00000
333 11 2 	-0.39988 -2.13716 0.00000
334 11 2 	0.23651 -2.55500 0.00000
335 11 2 	0.16504 -3.31507 0.00000
336 11 2 	0.55719 -3.22255 0.00000
337 11 2 	1.88295 -3.36299 0.00000
338 11 2 	1.93122 -4.15738 0.00000
339 11 2 	1.86161 -3.97668 0.00000
340 11 2 	2.22900 -3.24418 0.00000
341 11 3 	3.78814 -2.63998 0.00000
342 12 1 	0.00000 0.00000 0.00000
343 12 2 	-1.03751 -0.36008 0.00000
344 12 2 	-1.22293 -1.41879 0.00000
345 12 2 	-1.92575 -1.29281 0.00000
346 12 2 	-1.87871 -1.22871 0.00000
347 12 2 	-2.29304 -2.09254 0.00000
348 12 2 	-1.64191 -2.46373 0.00000
349 12 2 	-1.64761 -1.82760 0.00000
350 12 2 	-0.87047 -1.29746 0.00000
351 12 2 	-0.32658 -1.65321 0.00000
352 12 2 	0.25984 -1.74851 0.00000
353 12 2 	0.65415 -1.44501 0.00000
354 12 2 	0.32315 -1.26597 0.00000
355 12 2 	1.24356 -1.07644 0.00000
356 12 2 	1.49447 0.23220 0.00000
357 12 2 	1.43672 0.33664 0.00000
358 12 2 	2.41024 0.74453 0.00000
359 12 2 	2.37774 0.84010 0.00000
360 12 2 	2.51327 1.39806 0.00000
361 12 2 	2.22774 1.21313 0.00000
362 12 2 	2.05912 1.43359 0.00000
363 12 2 	2.25915 1.11566 0.00000
364 12 2 	2.33516 1.44103 0.00000
365 12 2 	2.49341 1.54217 0.00000
366 12 2 	2.62478 1.53534 0.00000
367 12 2 	2.87190 1.19045 0.00000
368 12 2 	2.28421 0.84965 0.00000
369 12 2 	2.54707 0.32485 0.00000
370 12 2 	2.47066 -0.63303 0.00000
371 12 2 	3.05136 -0.38998 0.00000
372 12 3 	3.16632 -0.45046 0.00000
373 13 1 	0.00000 0.00000 0.00000
374 13 2 	-0.65515 -0.31914 0.00000
375 13 2 	-1.13910 -1.15306 0.00000
376 13 2 	-1.38858 -0.66375 0.00000
377 13 2 	-1.41212 -0.40020 0.00000
378 13 2 	-0.44898 0.79833 0.00000
379 13 2 	-1.54305 0.43321 0.00000
380 13 2 	-1.46630 -0.64141 0.00000
381 13 2 	-1.29219 0.19665 0.00000
382 13 2 	-1.88348 0.18656 0.00000
383 13 2 	-1.95130 -0.07494 0.00000
384 13 2 	-1.57085 0.31348 0.00000
385 13 2 	-1.50476 0.61860 0.00000
386 13 2 	-1.39303 -0.11370 0.00000
387 13 2 	-1.42799 0.56279 0.00000
388 13 2 	-1.11317 0.57824 0.00000
389 13 2 	-1.55340 1.07006 0.00000
390 13 2 	-0.94336 0.32840 0.00000
391 13 2 	-0.90558 0.98035 0.00000
392 13 2 	-0.32740 -0.08608 0.00000
393 13 2 	-1.13068 -1.05353 0.00000
394 13 2 	-1.35384 -1.01341 0.00000
395 13 2 	-1.90030 -0.48408 0.00000
396 13 2 	-2.00824 -0.80819 0.00000
397 13 2 	-2.07297 -1.49526 0.00000
398 13 2 	-2.11447 -1.81768 0.00000
399 13 2 	-2.07689 -1.53485 0.00000
400 13 2 	-2.17139 -1.72084 0.00000
401 13 2 	-2.24484 -1.74451 0.00000
402 13 2 	-3.27585 -1.26605 0.00000
403 13 3 	-3.99446 -1.42408 0.00000
404 14 1 	0.00000 0.00000 0.00000
405 14 2 	-0.34170 0.59002 0.00000
406 14 2 	0.23021 0.10703 0.00000
407 14 2 	0.97547 0.55341 0.00000
408 14 2 	1.82677 0.02317 0.00000
409 14 2 	0.79835 -0.76529 0.00000
410 14 2 	1.21610 -1.46836 0.00000
411 14 2 	1.60335 -1.95933 0.00000
412 14 2 	1.69884 -1.29452 0.00000
413 14 2 	1.84479 -1.88823 0.00000
414 14 2 	2.76411 -1.60266 0.00000
415 14 2 	4.11262 -0.51549 0.00000
416 14 2 	3.53458 0.27649 0.00000
417 14 2 	2.55328 0.42158 0.00000
418 14 2 	2.82130 1.17614 0.00000
419 14 2 	2.41632 1.75016 0.00000
420 14 2 	2.64299 1.36903 0.00000
421 14 2 	4.75147 1.69979 0.00000
422 14 2 	5.41012 1.24435 0.00000
423 14 2 	4.97887 2.28412 0.00000
424 14 2 	5.21848 2.61369 0.00000
425 14 2 	4.53656 2.84807 0.00000
426 14 2 	4.61810 2.26108 0.00000
427 14 2 	4.14384 2.02035 0.00000
428 14 2 	4.84934 2.84489 0.00000
429 14 2 	6.06416 1.98450 0.00000
430 14 2 	5.81621 1.39952 0.00000
431 14 2 	5.32065 1.28162 0.00000
432 14 2 	6.01917 1.14049 0.00000
433 14 2 	6.04596 0.55550 0.00000
434 14 3 	5.97587 0.61456 0.00000
435 15 1 	0.00000 0.00000 0.00000
436 15 2 	-0.65755 0.82390 0.00000
437 15 2 	-1.68490 0.67390 0.00000
438 15 2 	-2.22943 0.77067 0.00000
439 15 2 	-1.83119 0.61570 0.00000
440 15 2 	-2.77354 0.39435 0.00000
441 15 2 	-1.85424 1.01690 0.00000
442 15 2 	-2.13003 1.03186 0.00000
443 15 2 	-1.81009 1.57316 0.00000
444 15 2 	-2.30016 1.66385 0.00000
445 15 2 	-3.00933 1.31159 0.00000
446 15 2 	-3.45544 1.37053 0.00000
447 15 2 	-3.95267 1.01651 0.00000
448 15 2 	-5.26013 1.46199 0.00000
449 15 2 	-6.06602 1.59607 0.00000
450 15 2 	-6.46838 1.52883 0.00000
451 15 2 	-7.67239 1.01656 0.00000
452 15 2 	-6.66636 1.27022 0.00000
453 15 2 	-6.89851 0.85414 0.00000
454 15 2 	-7.06990 0.62007 0.00000
455 15 2 	-7.68224 0.26220 0.00000
456 15 2 	-7.68115 0.72837 0.00000
457 15 2 	-7.02468 1.24125 0.00000
458 15 2 	-6.68355 1.21430 0.00000
459 15 2 	-6.81214 1.57196 0.00000
460 15 2 	-6.88191 1.20236 0.00000
461 15 2 	-6.33085 0.52042 0.00000
462 15 2 	-5.91561 0.41422 0.00000
463 15 2 	-6.20439 1.30475 0.00000
464 15 2 	-6.23897 1.55648 0.00000
465 15 3 	-5.62540 1.65141 0.00000
466 16 1 	0.00000 0.00000 0.00000
467 16 2 	0.25124 -0.53616 0.00000
468 16 2 	0.71619 -0.90078 0.00000
469 16 2 	1.00085 -0.66498 0.00000
470 16 2 	1.19359 -0.32298 0.00000
471 16 2 	1.60182 0.14520 0.00000
472 16 2 	1.58286 -1.06633 0.00000
473 16 2 	1.14993 -1.70681 0.00000
474 16 2 	0.88761 -1.85013 0.00000
475 16 2 	0.70353 -1.03851 0.00000
476 16 2 	0.79280 -1.67180 0.00000
477 16 2 	0.37530 -1.26991 0.00000
478 16 2 	0.90819 -1.32039 0.00000
479 16 2 	0.38955 -1.68209 0.00000
480 16 2 	0.12355 -1.41949 0.00000
481 16 2 	1.99041 -1.12934 0.00000
482 16 2 	2.01904 -1.01880 0.00000
483 16 2 	2.40783 -1.12518 0.00000
484 16 2 	1.97825 -0.21745 0.00000
485 16 2 	2.14106 -0.63500 0.00000
486 16 2 	2.40976 -0.28721 0.00000
487 16 2 	2.45960 -0.08353 0.00000
488 16 2 	2.59994 -0.34395 0.00000
489 16 2 	2.04866 0.66220 0.00000
490 16 2 	2.06759 1.22620 0.00000
491 16 2 	2.11419 1.29708 0.00000
492 16 2 	1.44694 1.55517 0.00000
493 16 2 	2.01990 1.05598 0.00000
494 16 2 	1.87970 1.98891 0.00000
495 16 2 	0.96171 1.63636 0.00000
496 16 3 	1.58481 1.90337 0.00000
497 17 1 	0.00000 0.00000 0.00000
498 17 2 	-0.31943 -0.42932 0.00000
499 17 2 	0.36439 0.22818 0.00000
500 17 2 	-0.18737 -0.01035 0.00000
501 17 2 	0.41056 -0.98946 0.00000
502 17 2 	0.30749 -1.29932 0.00000
503 17 2 	-1.35030 -1.03397 0.00000
504 17 2 	-1.27839 -2.29495 0.00000
505 17 2 	-1.26309 -1.71982 0.00000
506 17 2 	-0.66182 -2.37974 0.00000
507 17 2 	-0.21821 -2.72529 0.00000
508 17 2 	0.07508 -2.51803 0.00000
509 17 2 	-0.14823 -1.96518 0.00000
510 17 2 	0.39306 -2.55786 0.00000
511 17 2 	0.00778 -3.44760 0.00000
512 17 2 	0.23728 -3.09318 0.00000
513 17 2 	-0.28671 -3.05489 0.00000
514 17 2 	-1.01945 -2.39242 0.00000
515 17 2 	-1.27855 -2.78375 0.00000
516 17 2 	-1.42361 -2.77458 0.00000
517 17 2 	-1.53837 -2.97923 0.00000
518 17 2 	-1.66680 -2.93646 0.00000
519 17 2 	-2.19439 -2.30609 0.00000
520 17 2 	-1.82120 -2.46631 0.00000
521 17 2 	-1.29564 -2.32014 0.00000
522 17 2 	-2.25243 -1.25544 0.00000
523 17 2 	-3.19247 -0.40853 0.00000
524 17 2 	-2.94045 -0.01028 0.00000
525 17 2 	-2.39545 0.58665 0.00000
526 17 2 	-2.78828 0.30304 0.00000
527 17 3 	-2.28625 0.04161 0.00000
528 18 1 	0.00000 0.00000 0.00000
529 18 2 	0.17287 -0.85469 0.00000
530 18 2 	0.04307 0.39713 0.00000
531 18 2 	0.04683 1.00504 0.00000
532 18 2 	-0.26609 1.13284 0.00000
533 18 2 	-0.62216 0.12424 0.00000
534 18 2 	-0.62539 0.63637 0.00000
535 18 2 	0.12299 -0.75058 0.00000
536 18 2 	-0.60238 -1.08114 0.00000
537 18 2 	-0.86091 -1.27774 0.00000
538 18 2 	-0.61429 -0.30564 0.00000
539 18 2 	-0.72581 0.15078 0.00000
540 18 2 	-0.67140 0.70869 0.00000
541 18 2 	-1.56285 0.44772 0.00000
542 18 2 	-2.25263 -0.37317 0.00000
543 18 2 	-1.86135 0.07304 0.00000
544 18 2 	-1.55024 0.37948 0.00000
545 18 2 	-1.35743 0.83617 0.00000
546 18 2 	-0.49890 0.52041 0.00000
547 18 2 	0.20649 -0.24850 0.00000
548 18 2 	-0.14821 -0.45445 0.00000
549 18 2 	0.28329 -0.25108 0.00000
550 18 2 	-0.17960 0.14006 0.00000
551 18 2 	0.44376 0.35143 0.00000
552 18 2 	1.10595 1.25493 0.00000
553 18 2 	1.30987 1.51951 0.00000
554 18 2 	2.90003 2.41009 0.00000
555 18 2 	2.83663 3.19011 0.00000
556 18 2 	3.03456 3.55783 0.00000
557 18 2 	2.88619 4.30562 0.00000
558 18 3 	2.75505 4.24312 0.00000
559 19 1 	0.00000 0.00000 0.00000
560 19 2 	-0.44779 0.55598 0.00000
561 19 2 	0.29403 0.12797 0.00000
562 19 2 	0.11327 1.49204 0.00000
563 19 2 	0.30534 1.87507 0.00000
564 19 2 	0.97379 2.38631 0.00000
565 19 2 	1.60447 3.33434 0.00000
566 19 2 	1.57658 3.91961 0.00000
567 19 2 	0.92646 3.65915 0.00000
568 19 2 	-0.06708 3.26973 0.00000
569 19 2 	-0.19608 4.38156 0.00000
570 19 2 	-0.63315 4.08451 0.00000
571 19 2 	-0.41208 4.90939 0.00000
572 19 2 	-0.78745 3.99409 0.00000
573 19 2 	0.35762 3.33440 0.00000
574 19 2 	1.16138 3.17047 0.00000
575 19 2 	0.71555 2.96061 0.00000
576 19 2 	1.21754 3.28918 0.00000
577 19 2 	2.24087 3.64730 0.00000
578 19 2 	2.45657 2.88862 0.00000
579 19 2 	2.24208 2.86837 0.00000
580 19 2 	1.78146 3.12170 0.00000
581 19 2 	1.39544 4.06986 0.00000
582 19 2 	1.50990 3.79028 0.00000
583 19 2 	1.82433 2.70114 0.00000
584 19 2 	1.69213 4.15918 0.00000
585 19 2 	0.43544 4.35930 0.00000
586 19 2 	0.60278 3.74077 0.00000
587 19 2 	0.94000 3.95741 0.00000
588 19 2 	1.22387 3.67171 0.00000
589 19 3 	2.01961 4.34226 0.00000
590 20 1 	0.00000 0.00000 0.00000
591 20 2 	-0.15936 -0.03730 0.00000
592 20 2 	-0.77110 1.13062 0.00000
593 20 2 	-1.53862 1.00145 0.00000
594 20 2 	-2.03785 1.23152 0.00000
595 20 2 	-2.01272 1.19893 0.00000
596 20 2 	-2.30595 0.90219 0.00000
597 20 2 	-1.85988 -0.05368 0.00000
598 20 2 	-1.29047 -0.94436 0.00000
599 20 2 	-1.42832 -0.17004 0.00000
600 20 2 	-1.36027 -0.12120 0.00000
601 20 2 	-0.91029 -1.46297 0.00000
602 20 2 	-0.00441 -1.31675 0.00000
603 20 2 	0.53824 -1.24017 0.00000
604 20 2 	0.86124 -2.31152 0.00000
605 20 2 	0.30843 -2.38743 0.00000
606 20 2 	0.13765 -2.51978 0.00000
607 20 2 	-0.49417 -2.94749 0.00000
608 20 2 	-0.52587 -2.31159 0.00000
609 20 2 	0.49087 -1.60871 0.00000
610 20 2 	0.50034 -1.62574 0.00000
611 20 2 	0.54033 -1.90850 0.00000
612 20 2 	0.08670 -2.41615 0.00000
613 20 2 	0.20457 -1.67224 0.00000
614 20 2 	1.41607 -2.63437 0.00000
615 20 2 	1.44925 -1.98191 0.00000
616 20 2 	1.80707 -2.33114 0.00000
617 20 2 	2.73244 -1.76887 0.00000
618 20 2 	2.97530 -2.29972 0.00000
619 20 2 	1.48179 -2.37807 0.00000
620 20 3 	1.49780 -1.77755 0.00000
621 21 1 	0.00000 0.00000 0.00000
622 21 2 	0.48939 0.66597 0.00000
623 21 2 	1.79700 1.50278 0.00000
624 21 2 	1.63033 1.30205 0.00000
625 21 2 	1.81461 1.77842 0.00000
626 21 2 	1.44282 1.38395 0.00000
627 21 2 	2.08375 1.36527 0.00000
628 21 2 	3.07859 0.60813 0.00000
629 21 2 	2.23712 1.07489 0.00000
630 21 2 	2.87754 1.72231 0.00000
631 21 2 	2.99540 1.27320 0.00000
632 21 2 	4.14146 1.85733 0.00000
633 21 2 	4.00705 2.25092 0.00000
634 21 2 	4.02774 2.20507 0.00000
635 21 2 	5.00761 0.56798 0.00000
636 21 2 	4.69585 0.75671 0.00000
637 21 2 	5.53346 0.81321 0.00000
638 21 2 	5.05263 0.09776 0.00000
639 21 2 	4.93236 0.65737 0.00000
640 21 2 	5.72305 0.78088 0.00000
641 21 2 	5.00035 1.27149 0.00000
642 21 2 	5.32179 0.06335 0.00000
643 21 2 	6.16818 -0.38487 0.00000
644 21 2 	6.53137 0.25067 0.00000
645 21 2 	5.62201 0.29803 0.00000
646 21 2 	5.93307 -2.23446 0.00000
647 21 2 	5.56422 -2.51299 0.00000
648 21 2 	4.82977 -2.90677 0.00000
649 21 2 	4.51985 -2.27907 0.00000
650 21 2 	4.73768 -1.96176 0.00000
651 21 3 	4.13430 -3.01696 0.00000
652 22 1 	0.00000 0.00000 0.00000
653 22 2 	1.20715 -0.11225 0.00000
654 22 2 	1.37638 -0.66052 0.00000
655 22 2 	1.85736 -1.73394 0.00000
656 22 2 	1.69477 -1.87629 0.00000
657 22 2 	2.67397 -2.26101 0.00000
658 22 2 	2.03497 -1.04855 0.00000
659 22 2 	2.70541 -0.87570 0.00000
660 22 2 	2.14812 -0.52235 0.00000
661 22 2 	2.23278 -1.05397 0.00000
662 22 2 	2.70086 -0.82447 0.00000
663 22 2 	2.90844 -0.00864 0.00000
664 22 2 	2.52137 0.16612 0.00000
665 22 2 	2.69141 0.54959 0.00000
666 22 2 	2.43765 0.43461 0.00000
667 22 2 	3.15791 0.61965 0.00000
668 22 2 	3.74874 1.62973 0.00000
669 22 2 	4.69749 1.85468 0.00000
670 22 2 	4.58478 1.67835 0.00000
671 22 2 	5.43967 1.80851 0.00000
672 22 2 	4.93999 1.83856 0.00000
673 22 2 	6.09993 2.75366 0.00000
674 22 2 	7.30601 2.53180 0.00000
675 22 2 	8.14207 1.70513 0.00000
676 22 2 	8.40686 1.45341 0.00000
677 22 2 	9.33168 1.29224 0.00000
678 22 2 	9.05759 1.16022 0.00000
679 22 2 	8.56739 0.50032 0.00000
680 22 2 	9.22821 0.36357 0.00000
681 22 2 	9.96050 -0.24161 0.00000
682 22 3 	11.03456 -0.83139 0.00000
683 23 1 	0.00000 0.00000 0.00000
684 23 2 	-0.16531 0.19795 0.00000
685 23 2 	0.28366 -0.08415 0.00000
686 23 2 	0.18481 -0.19523 0.00000
687 23 2 	-0.05280 0.44694 0.00000
688 23 2 	-1.32079 0.25789 0.00000
689 23 2 	-1.19028 0.37655 0.00000
690 23 2 	-0.76331 0.80411 0.00000
691 23 2 	-0.37660 0.92579 0.00000
692 23 2 	-0.93900 1.64293 0.00000
693 23 2 	-0.27519 1.24016 0.00000
694 23 2 	-0.12917 0.69702 0.00000
695 23 2 	0.06972 1.23004 0.00000
696 23 2 	0.57508 -0.06713 0.00000
697 23 2 	0.86309 -0.62934 0.00000
698 23 2 	0.57401 -0.52575 0.00000
699 23 2 	0.22748 -0.66857 0.00000
700 23 2 	-0.35192 -0.44780 0.00000
701 23 2 	0.22645 -0.60324 0.00000
702 23 2 	-0.29317 0.08513 0.00000
703 23 2 	-0.32369 -0.50724 0.00000
704 23 2 	-0.88349 -1.28508 0.00000
705 23 2 	-1.32942 -0.90259 0.00000
706 23 2 	-1.51359 -1.34440 0.00000
707 23 2 	-1.51057 -1.98546 0.00000
708 23 2 	-1.32471 -2.37425 0.00000
709 23 2 	-0.88084 -2.79386 0.00000
710 23 2 	-0.96325 -3.00593 0.00000
711 23 2 	-1.85684 -3.65257 0.00000
712 23 2 	-2.55928 -4.75976 0.00000
713 23 3 	-3.35898 -4.28975 0.00000
714 24 1 	0.00000 0.00000 0.00000
715 24 2 	-0.18363 0.19759 0.00000
716 24 2 	-0.05513 -0.31113 0.00000
717 24 2 	-0.02275 -0.59295 0.00000
718 24 2 	0.06419 -1.09291 0.00000
719 24 2 	0.00770 -2.11244 0.00000
720 24 2 	0.78534 -3.08264 0.00000
721 24 2 	0.39866 -2.43824 0.00000
722 24 2 	-0.43557 -1.54728 0.00000
723 24 2 	0.07300 -1.13057 0.00000
724 24 2 	0.60233 -0.90556 0.00000
725 24 2 	1.02752 -0.55461 0.00000
726 24 2 	1.84641 -0.90007 0.00000
727 24 2 	2.53641 -0.82028 0.00000
728 24 2 	2.64650 -1.13786 0.00000
729 24 2 	3.65502 -0.07896 0.00000
730 24 2 	3.48315 -0.06173 0.00000
731 24 2 	3.60574 -0.18388 0.00000
732 24 2 	3.49613 0.63894 0.00000
733 24 2 	2.32078 1.28115 0.00000
734 24 2 	3.07912 2.12943 0.00000
735 24 2 	3.36971 1.55261 0.00000
736 24 2 	5.12867 1.12913 0.00000
737 24 2 	5.69078 0.59580 0.00000
738 24 2 	6.19708 1.19923 0.00000
739 24 2 	6.59855 0.46029 0.00000
740 24 2 	6.64427 0.50283 0.00000
741 24 2 	7.02146 -0.47658 0.00000
742 24 2 	7.84064 -1.09319 0.00000
743 24 2 	8.37469 -0.67602 0.00000
744 24 3 	8.96367 0.24812 0.00000
745 25 1 	0.00000 0.00000 0.00000
746 25 2 	0.93677 -0.29025 0.00000
747 25 2 	1.30042 -0.42807 0.00000
748 25 2 	1.59857 -0.12914 0.00000
749 25 2 	2.71973 0.19938 0.00000
750 25 2 	2.14649 0.20771 0.00000
751 25 2 	1.30361 0.49608 0.00000
752 25 2 	1.05737 -0.25267 0.00000
753 25 2 	1.15115 -0.09415 0.00000
754 25 2 	0.33942 -0.40952 0.00000
755 25 2 	0.61027 -1.33760 0.00000
756 25 2 	1.27194 -0.67603 0.00000
757 25 2 	0.96224 -1.67981 0.00000
758 25 2 	1.07074 -1.53780 0.00000
759 25 2 	0.81646 -1.79432 0.00000
760 25 2 	0.57714 -1.63708 0.00000
761 25 2 	-0.32263 -1.99937 0.00000
762 25 2 	-0.32437 -1.60301 0.00000
763 25 2 	0.58374 -1.07686 0.00000
764 25 2 	-0.19141 -2.12958 0.00000
765 25 2 	-0.52317 -1.84230 0.00000
766 25 2 	-0.84494 -0.47937 0.00000
767 25 2 	-1.43051 -0.06499 0.00000
768 25 2 	-0.93321 1.05409 0.00000
769 25 2 	0.54267 0.64770 0.00000
770 25 2 	0.03520 0.70556 0.00000
771 25 2 	0.05580 0.08823 0.00000
772 25 2 	0.37099 0.65731 0.00000
773 25 2 	-0.03040 0.97248 0.00000
774 25 2 	-0.75429 1.11735 0.00000
775 25 3 	-1.20317 1.97075 0.00000
776 26 1 	0.00000 0.00000 0.00000
777 26 2 	-1.47966 0.09968 0.00000
778 26 2 	-2.26407 -0.30951 0.00000
779 26 2 	-2.41916 0.18757 0.00000
780 26 2 	-1.90027 0.37505 0.00000
781 26 2 	-2.21819 0.20745 0.00000
782 26 2 	-2.11653 -0.49175 0.00000
783 26 2 	-2.34584 -0.54689 0.00000
784 26 2 	-2.49972 -1.74542 0.00000
785 26 2 	-1.95785 -1.58331 0.00000
786 26 2 	-1.71276 -1.77331 0.00000
787 26 2 	-1.46402 -1.82665 0.00000
788 26 2 	-1.83317 -1.85676 0.00000
789 26 2 	-1.83268 -2.51698 0.00000
790 26 2 	-1.61795 -2.00465 0.00000
791 26 2 	-1.08855 -1.87263 0.00000
792 26 2 	-1.48532 -1.05079 0.00000
793 26 2 	-1.93537 -1.58460 0.00000
794 26 2 	-1.52899 -2.08094 0.00000
795 26 2 	-1.25703 -2.56411 0.00000
796 26 2 	-1.14133 -2.85186 0.00000
797 26 2 	-0.88914 -3.27859 0.00000
798 26 2 	-0.84720 -3.72371 0.00000
799 26 2 	-1.08691 -4.04748 0.00000
800 26 2 	-1.52185 -3.11829 0.00000
801 26 2 	-1.80416 -3.71723 0.00000
802 26 2 	-1.62686 -3.29843 0.00000
803 26 2 	-1.34208 -3.74924 0.00000
804 26 2 	-0.69794 -3.77297 0.00000
805 26 2 	-0.90957 -3.39987 0.00000
806 26 3 	-1.38971 -3.21897 0.00000
807 27 1 	0.00000 0.00000 0.00000
808 27 2 	-1.21245 -0.12648 0.00000
809 27 2 	-2.03376 -0.46997 0.00000
810 27 2 	-3.21199 -0.34597 0.00000
811 27 2 	-2.95135 0.17473 0.00000
812 27 2 	-3.83782 0.32559 0.00000
813 27 2 	-4.13943 0.31528 0.00000
814 27 2 	-3.46185 -0.08924 0.00000
815 27 2 	-3.38111 -0.86387 0.00000
816 27 2 	-2.72248 -1.71622 0.00000
817 27 2 	-1.47654 -2.66722 0.00000
818 27 2 	-1.60097 -2.04133 0.00000
819 27 2 	-2.13482 -1.89558 0.00000
820 27 2 	-1.59487 -2.26532 0.00000
821 27 2 	-1.31476 -0.99775 0.00000
822 27 2 	-1.55809 -0.66086 0.00000
823 27 2 	-1.57136 -0.31415 0.00000
824 27 2 	-2.07541 -1.70754 0.00000
825 27 2 	-3.24974 -1.42902 0.00000
826 27 2 	-3.60211 -1.08307 0.00000
827 27 2 	-4.09714 -0.88935 0.00000
828 27 2 	-4.33988 -2.07396 0.00000
829 27 2 	-3.66279 -0.60091 0.00000
830 27 2 	-4.01250 -0.00203 0.00000
831 27 2 	-3.00699 -1.01202 0.00000
832 27 2 	-3.14306 -0.69810 0.00000
833 27 2 	-3.36442 -0.53540 0.00000
834 27 2 	-2.39283 -0.69649 0.00000
835 27 2 	-1.45753 -0.35109 0.00000
836 27 2 	-1.28502 -0.50517 0.00000
837 27 3 	-1.64194 -1.26235 0.00000
838 28 1 	0.00000 0.00000 0.00000
839 28 2 	-0.27909 -0.69502 0.00000
840 28 2 	-0.65981 -0.14961 0.00000
841 28 2 	-0.13399 -0.11508 0.00000
842 28 2 	-0.70865 0.04108 0.00000
843 28 2 	-2.03118 0.50906 0.00000
844 28 2 	-2.23799 -0.04067 0.00000
845 28 2 	-3.30825 -0.46125 0.00000
846 28 2 	-4.52669 -0.47612 0.00000
847 28 2 	-4.33120 -0.02907 0.00000
848 28 2 	-3.83892 0.04588 0.00000
849 28 2 	-3.63533 0.53054 0.00000
850 28 2 	-2.98763 -0.23785 0.00000
851 28 2 	-3.98875 -0.57465 0.00000
852 28 2 	-4.81174 -0.08129 0.00000
853 28 2 	-5.45703 0.06779 0.00000
854 28 2 	-5.30940 0.84200 0.00000
855 28 2 	-4.98751 0.51412 0.00000
856 28 2 	-5.48678 1.20842 0.00000
857 28 2 	-5.24864 0.61953 0.00000
858 28 2 	-5.68584 0.22917 0.00000
859 28 2 	-5.82030 0.60334 0.00000
860 28 2 	-5.57366 0.91481 0.00000
861 28 2 	-5.85176 1.42006 0.00000