LAMMPS Description

4200 atoms
4000 bonds

3 atom types
1 bond types

-20 20 xlo xhi
-20 20 ylo yhi
-20 20 zlo zhi

Masses

1 1
2 1
3 1

Atoms # id mol type xu yu zu

1 1 1 	-13.90703 -17.84785 0.00000
2 1 1 	-14.60832 -17.41969 0.00000
3 1 1 	-13.31659 -16.85579 0.00000
4 1 1 	-13.54076 -17.09218 0.00000
5 1 1 	-13.84542 -15.99756 0.00000
6 1 1 	-14.22904 -16.31558 0.00000
7 1 1 	-14.31828 -16.45252 0.00000
8 1 1 	-14.39115 -15.96718 0.00000
9 1 1 	-15.07894 -15.88674 0.00000
10 1 1 	-14.48498 -16.81280 0.00000
11 1 1 	-15.71819 -17.59542 0.00000
12 1 1 	-15.08697 -17.90737 0.00000
13 1 1 	-14.67650 -17.07311 0.00000
14 1 1 	-14.33709 -16.58740 0.00000
15 1 1 	-15.91039 -17.18188 0.00000
16 1 1 	-17.30631 -16.73605 0.00000
17 1 1 	-16.80083 -15.85987 0.00000
18 1 1 	-16.03288 -16.14160 0.00000
19 1 1 	-15.74961 -17.41813 0.00000
20 1 1 	-15.52563 -19.22938 0.00000
21 1 1 	-15.79201 -18.84830 0.00000
22 2 1 	-11.13539 5.29362 0.00000
23 2 1 	-11.03897 5.37179 0.00000
24 2 1 	-11.75434 4.40208 0.00000
25 2 1 	-11.04825 3.87449 0.00000
26 2 1 	-11.16177 4.25512 0.00000
27 2 1 	-10.65839 4.21812 0.00000
28 2 1 	-10.88653 4.27818 0.00000
29 2 1 	-12.40268 4.07875 0.00000
30 2 1 	-12.25444 4.25142 0.00000
31 2 1 	-12.87735 6.04011 0.00000
32 2 1 	-12.41526 4.91999 0.00000
33 2 1 	-13.03469 3.77275 0.00000
34 2 1 	-12.96917 3.15895 0.00000
35 2 1 	-12.63440 2.91940 0.00000
36 2 1 	-12.56405 2.40017 0.00000
37 2 1 	-13.49590 3.33711 0.00000
38 2 1 	-13.94775 2.67413 0.00000
39 2 1 	-13.09777 2.00780 0.00000
40 2 1 	-13.36736 2.17449 0.00000
41 2 1 	-11.52557 1.39057 0.00000
42 2 1 	-10.84393 0.77571 0.00000
43 3 1 	15.88174 10.11538 0.00000
44 3 1 	15.48315 9.87429 0.00000
45 3 1 	15.70039 11.14415 0.00000
46 3 1 	15.33489 11.76840 0.00000
47 3 1 	15.15938 12.64879 0.00000
48 3 1 	15.32306 11.46432 0.00000
49 3 1 	13.73403 11.32753 0.00000
50 3 1 	12.04386 9.30379 0.00000
51 3 1 	11.42411 8.31417 0.00000
52 3 1 	12.75840 7.69207 0.00000
53 3 1 	13.23347 8.36118 0.00000
54 3 1 	13.17937 8.56859 0.00000
55 3 1 	14.10024 8.22138 0.00000
56 3 1 	13.73774 7.12837 0.00000
57 3 1 	12.93678 6.49792 0.00000
58 3 1 	12.74536 7.01495 0.00000
59 3 1 	11.70439 7.16094 0.00000
60 3 1 	12.03910 8.31704 0.00000
61 3 1 	11.77740 6.70749 0.00000
62 3 1 	11.01032 7.30863 0.00000
63 3 1 	11.42288 8.16927 0.00000
64 4 1 	-18.67102 18.50642 0.00000
65 4 1 	-19.14724 19.27835 0.00000
66 4 1 	-18.22705 19.22001 0.00000
67 4 1 	-17.40418 19.52300 0.00000
68 4 1 	-16.61110 19.71700 0.00000
69 4 1 	-16.06318 19.96213 0.00000
70 4 1 	-15.17805 19.18266 0.00000
71 4 1 	-14.49954 19.51117 0.00000
72 4 1 	-14.39220 20.14763 0.00000
73 4 1 	-14.47114 20.01782 0.00000
74 4 1 	-13.42027 21.11963 0.00000
75 4 1 	-14.02499 21.84532 0.00000
76 4 1 	-15.50327 21.73764 0.00000
77 4 1 	-14.67192 21.67160 0.00000
78 4 1 	-15.28283 22.66794 0.00000
79 4 1 	-15.18102 22.50777 0.00000
80 4 1 	-14.43160 22.48211 0.00000
81 4 1 	-15.31951 23.13046 0.00000
82 4 1 	-14.52457 21.97341 0.00000
83 4 1 	-15.49355 22.51376 0.00000
84 4 1 	-15.18575 23.52375 0.00000
85 5 1 	1.01968 15.81934 0.00000
86 5 1 	0.59794 15.97164 0.00000
87 5 1 	-0.55171 15.76418 0.00000
88 5 1 	-1.15933 15.43303 0.00000
89 5 1 	0.05641 15.57331 0.00000
90 5 1 	-0.39970 15.30000 0.00000
91 5 1 	-0.91713 16.23426 0.00000
92 5 1 	-0.51432 17.40545 0.00000
93 5 1 	-0.37038 17.90022 0.00000
94 5 1 	0.03810 18.36812 0.00000
95 5 1 	0.36384 19.37691 0.00000
96 5 1 	0.13032 20.92980 0.00000
97 5 1 	1.19787 21.38978 0.00000
98 5 1 	0.28994 21.40105 0.00000
99 5 1 	0.03103 21.34840 0.00000
100 5 1 	0.36460 21.76283 0.00000
101 5 1 	0.39361 21.84216 0.00000
102 5 1 	0.39531 21.90922 0.00000
103 5 1 	-0.10599 21.37374 0.00000
104 5 1 	0.76876 22.25990 0.00000
105 5 1 	0.70737 22.07662 0.00000
106 6 1 	-0.05881 -7.62944 0.00000
107 6 1 	-0.13430 -7.70311 0.00000
108 6 1 	-0.70426 -5.77894 0.00000
109 6 1 	-1.18126 -5.63578 0.00000
110 6 1 	-1.28611 -5.48262 0.00000
111 6 1 	-0.51079 -5.73782 0.00000
112 6 1 	-0.04745 -6.41400 0.00000
113 6 1 	0.70656 -5.71258 0.00000
114 6 1 	0.33620 -4.91766 0.00000
115 6 1 	0.10401 -6.19381 0.00000
116 6 1 	-0.53441 -6.46132 0.00000
117 6 1 	-1.63039 -5.32894 0.00000
118 6 1 	-2.10706 -4.84581 0.00000
119 6 1 	-3.30609 -5.24068 0.00000
120 6 1 	-4.11292 -6.01050 0.00000
121 6 1 	-3.17310 -6.63433 0.00000
122 6 1 	-3.21213 -7.75940 0.00000
123 6 1 	-3.64035 -6.99448 0.00000
124 6 1 	-3.01549 -7.39328 0.00000
125 6 1 	-3.06448 -8.83048 0.00000
126 6 1 	-3.16628 -9.42979 0.00000
127 7 1 	-14.17200 19.34679 0.00000
128 7 1 	-14.48274 19.52576 0.00000
129 7 1 	-14.76005 19.69007 0.00000
130 7 1 	-14.09140 20.28687 0.00000
131 7 1 	-14.49172 20.62902 0.00000
132 7 1 	-14.03289 22.20863 0.00000
133 7 1 	-14.41895 21.87354 0.00000
134 7 1 	-14.23732 21.84589 0.00000
135 7 1 	-14.15982 22.49492 0.00000
136 7 1 	-14.24813 22.84488 0.00000
137 7 1 	-13.85932 22.73175 0.00000
138 7 1 	-13.35016 23.35427 0.00000
139 7 1 	-12.19119 23.21167 0.00000
140 7 1 	-12.57170 23.46169 0.00000
141 7 1 	-12.33669 24.07355 0.00000
142 7 1 	-12.88355 23.99069 0.00000
143 7 1 	-14.69208 24.25100 0.00000
144 7 1 	-13.99006 24.74277 0.00000
145 7 1 	-14.63566 26.45772 0.00000
146 7 1 	-15.06187 26.27315 0.00000
147 7 1 	-16.58974 24.99530 0.00000
148 8 1 	19.13480 15.02643 0.00000
149 8 1 	20.16599 14.81473 0.00000
150 8 1 	20.64556 15.31448 0.00000
151 8 1 	20.00509 15.68168 0.00000
152 8 1 	19.56090 16.96918 0.00000
153 8 1 	18.89951 17.48393 0.00000
154 8 1 	17.72967 16.95524 0.00000
155 8 1 	18.22268 17.25111 0.00000
156 8 1 	18.97077 16.68705 0.00000
157 8 1 	19.26376 16.11129 0.00000
158 8 1 	20.06397 16.54212 0.00000
159 8 1 	19.91579 16.78420 0.00000
160 8 1 	20.17507 15.89954 0.00000
161 8 1 	20.37707 15.75903 0.00000
162 8 1 	20.41179 15.83368 0.00000
163 8 1 	20.54543 15.80732 0.00000
164 8 1 	19.72248 15.58592 0.00000
165 8 1 	19.11368 15.66242 0.00000
166 8 1 	19.47851 15.97967 0.00000
167 8 1 	17.37247 16.70805 0.00000
168 8 1 	18.56429 17.29609 0.00000
169 9 1 	3.03778 4.73348 0.00000
170 9 1 	2.32000 4.83594 0.00000
171 9 1 	2.59702 4.71380 0.00000
172 9 1 	3.57944 4.01660 0.00000
173 9 1 	4.54773 3.49383 0.00000
174 9 1 	2.24861 2.68612 0.00000
175 9 1 	1.30524 2.68086 0.00000
176 9 1 	1.96917 2.62266 0.00000
177 9 1 	1.62382 2.58747 0.00000
178 9 1 	3.22383 3.91783 0.00000
179 9 1 	2.30286 3.58636 0.00000
180 9 1 	3.85257 4.12322 0.00000
181 9 1 	3.85100 4.11867 0.00000
182 9 1 	2.54435 3.98894 0.00000
183 9 1 	4.49780 4.87696 0.00000
184 9 1 	4.06012 6.03084 0.00000
185 9 1 	4.63479 5.62785 0.00000
186 9 1 	4.59573 5.27813 0.00000
187 9 1 	4.88040 5.87438 0.00000
188 9 1 	4.73755 6.62116 0.00000
189 9 1 	4.04978 6.71548 0.00000
190 10 1 	-14.83842 5.49932 0.00000
191 10 1 	-13.91126 5.15134 0.00000
192 10 1 	-12.49828 4.08938 0.00000
193 10 1 	-11.33916 2.92307 0.00000
194 10 1 	-11.47456 1.78308 0.00000
195 10 1 	-12.29661 2.14831 0.00000
196 10 1 	-10.81789 1.49618 0.00000
197 10 1 	-10.41345 1.06145 0.00000
198 10 1 	-10.35816 1.22456 0.00000
199 10 1 	-10.11518 0.85701 0.00000
200 10 1 	-10.77838 1.81803 0.00000
201 10 1 	-11.83540 1.83597 0.00000
202 10 1 	-11.67530 2.69680 0.00000
203 10 1 	-11.09668 1.63922 0.00000
204 10 1 	-11.28992 3.10501 0.00000
205 10 1 	-11.60946 3.03311 0.00000
206 10 1 	-11.15388 2.89892 0.00000
207 10 1 	-10.95697 3.50961 0.00000
208 10 1 	-11.12334 3.13462 0.00000
209 10 1 	-10.82225 3.46437 0.00000
210 10 1 	-11.57432 4.27898 0.00000
211 11 1 	-5.88372 -8.61038 0.00000
212 11 1 	-5.85980 -8.00848 0.00000
213 11 1 	-6.23863 -9.42342 0.00000
214 11 1 	-6.39737 -9.71887 0.00000
215 11 1 	-7.01573 -10.27712 0.00000
216 11 1 	-6.22141 -10.92909 0.00000
217 11 1 	-7.93881 -11.64979 0.00000
218 11 1 	-7.26935 -11.62924 0.00000
219 11 1 	-6.86290 -12.03343 0.00000
220 11 1 	-7.24903 -11.58124 0.00000
221 11 1 	-6.72498 -11.40653 0.00000
222 11 1 	-7.37200 -10.35676 0.00000
223 11 1 	-7.28690 -11.28458 0.00000
224 11 1 	-8.10793 -12.13192 0.00000
225 11 1 	-8.86813 -11.72923 0.00000
226 11 1 	-8.51253 -11.42846 0.00000
227 11 1 	-8.29272 -11.01560 0.00000
228 11 1 	-8.43278 -11.01150 0.00000
229 11 1 	-8.45946 -11.48818 0.00000
230 11 1 	-8.61501 -12.49137 0.00000
231 11 1 	-7.96252 -12.03345 0.00000
232 12 1 	11.69451 12.78187 0.00000
233 12 1 	10.46839 14.08388 0.00000
234 12 1 	10.94533 14.05228 0.00000
235 12 1 	10.49509 14.08802 0.00000
236 12 1 	9.77954 14.33460 0.00000
237 12 1 	10.41378 14.66061 0.00000
238 12 1 	10.86195 14.74283 0.00000
239 12 1 	11.21534 13.60545 0.00000
240 12 1 	10.71901 14.13918 0.00000
241 12 1 	10.13575 13.76260 0.00000
242 12 1 	10.04512 13.64365 0.00000
243 12 1 	10.10379 13.65213 0.00000
244 12 1 	10.28051 13.95540 0.00000
245 12 1 	9.42949 13.55581 0.00000
246 12 1 	9.32628 12.67643 0.00000
247 12 1 	11.35399 11.99162 0.00000
248 12 1 	10.87967 10.23584 0.00000
249 12 1 	10.53200 9.39057 0.00000
250 12 1 	10.95665 9.15473 0.00000
251 12 1 	11.20859 8.57464 0.00000
252 12 1 	11.41014 9.34473 0.00000
253 13 1 	-1.08557 8.88646 0.00000
254 13 1 	-0.85156 7.66297 0.00000
255 13 1 	-0.58078 8.17657 0.00000
256 13 1 	0.04081 7.89793 0.00000
257 13 1 	-0.50909 8.93889 0.00000
258 13 1 	-0.52542 9.67029 0.00000
259 13 1 	-0.93011 8.96212 0.00000
260 13 1 	-0.88533 9.35184 0.00000
261 13 1 	-0.51274 10.60969 0.00000
262 13 1 	-0.72194 11.61305 0.00000
263 13 1 	-0.17489 10.67782 0.00000
264 13 1 	-0.29874 10.28445 0.00000
265 13 1 	1.53839 10.96034 0.00000
266 13 1 	2.06378 11.98725 0.00000
267 13 1 	0.10129 12.63798 0.00000
268 13 1 	0.78150 13.02647 0.00000
269 13 1 	2.12816 13.61221 0.00000
270 13 1 	2.29824 13.26029 0.00000
271 13 1 	2.48210 12.48867 0.00000
272 13 1 	2.48302 13.06845 0.00000
273 13 1 	1.64325 12.70408 0.00000
274 14 1 	-8.74399 11.12668 0.00000
275 14 1 	-8.11811 11.43267 0.00000
276 14 1 	-9.62368 11.15307 0.00000
277 14 1 	-9.30058 11.12027 0.00000
278 14 1 	-9.58984 11.61014 0.00000
279 14 1 	-9.59900 10.09194 0.00000
280 14 1 	-10.54110 9.85390 0.00000
281 14 1 	-10.64881 9.89901 0.00000
282 14 1 	-10.16177 8.77642 0.00000
283 14 1 	-10.04073 9.09865 0.00000
284 14 1 	-9.90928 8.70708 0.00000
285 14 1 	-10.40672 7.93207 0.00000
286 14 1 	-10.31644 8.74345 0.00000
287 14 1 	-10.94698 8.74333 0.00000
288 14 1 	-12.55309 9.73388 0.00000
289 14 1 	-12.27713 8.91785 0.00000
290 14 1 	-11.51554 9.07350 0.00000
291 14 1 	-11.75288 9.81308 0.00000
292 14 1 	-12.12434 10.54784 0.00000
293 14 1 	-11.78519 9.76404 0.00000
294 14 1 	-12.02855 10.05188 0.00000
295 15 1 	-16.14561 19.38837 0.00000
296 15 1 	-14.63236 20.60659 0.00000
297 15 1 	-14.04611 21.43441 0.00000
298 15 1 	-13.63979 22.21140 0.00000
299 15 1 	-14.06875 21.26550 0.00000
300 15 1 	-13.19123 20.97904 0.00000
301 15 1 	-12.48694 20.47973 0.00000
302 15 1 	-12.93046 19.50471 0.00000
303 15 1 	-13.38121 18.66992 0.00000
304 15 1 	-13.81510 19.40574 0.00000
305 15 1 	-13.58425 21.22444 0.00000
306 15 1 	-14.35339 21.22797 0.00000
307 15 1 	-14.23930 20.25328 0.00000
308 15 1 	-15.47534 19.42160 0.00000
309 15 1 	-14.37717 20.08463 0.00000
310 15 1 	-14.11454 18.77395 0.00000
311 15 1 	-13.01374 18.09161 0.00000
312 15 1 	-12.68856 17.85355 0.00000
313 15 1 	-13.52337 18.98585 0.00000
314 15 1 	-15.38590 18.94729 0.00000
315 15 1 	-15.53482 19.55361 0.00000
316 16 1 	7.11670 13.80726 0.00000
317 16 1 	8.28581 13.46662 0.00000
318 16 1 	9.04667 12.60160 0.00000
319 16 1 	9.38657 11.53409 0.00000
320 16 1 	8.38217 12.05905 0.00000
321 16 1 	8.88392 12.87249 0.00000
322 16 1 	7.87576 12.57097 0.00000
323 16 1 	8.83143 13.39568 0.00000
324 16 1 	8.58249 12.95878 0.00000
325 16 1 	8.72096 13.74915 0.00000
326 16 1 	8.15917 13.97191 0.00000
327 16 1 	7.00377 13.00295 0.00000
328 16 1 	6.67115 14.06417 0.00000
329 16 1 	7.07549 15.58068 0.00000
330 16 1 	7.45094 15.25636 0.00000
331 16 1 	7.09494 15.43714 0.00000
332 16 1 	5.91294 15.91375 0.00000
333 16 1 	6.37808 15.92180 0.00000
334 16 1 	6.61302 15.87534 0.00000
335 16 1 	7.08419 16.18064 0.00000
336 16 1 	7.16877 15.56285 0.00000
337 17 1 	-15.60380 -9.00959 0.00000
338 17 1 	-15.75597 -9.98434 0.00000
339 17 1 	-14.35064 -10.56051 0.00000
340 17 1 	-15.27007 -11.62124 0.00000
341 17 1 	-15.33832 -12.20016 0.00000
342 17 1 	-15.53090 -12.90520 0.00000
343 17 1 	-15.61889 -11.82542 0.00000
344 17 1 	-15.27714 -12.86326 0.00000
345 17 1 	-16.21688 -13.68286 0.00000
346 17 1 	-16.96336 -12.36380 0.00000
347 17 1 	-18.00187 -11.64751 0.00000
348 17 1 	-17.13280 -13.06313 0.00000
349 17 1 	-16.39640 -13.00370 0.00000
350 17 1 	-16.96593 -13.29893 0.00000
351 17 1 	-16.91679 -13.02378 0.00000
352 17 1 	-14.80567 -12.01961 0.00000
353 17 1 	-15.15809 -11.19615 0.00000
354 17 1 	-13.81003 -9.38872 0.00000
355 17 1 	-14.14132 -8.43524 0.00000
356 17 1 	-13.89028 -7.39929 0.00000
357 17 1 	-13.18555 -6.97664 0.00000
358 18 1 	-9.93254 16.66492 0.00000
359 18 1 	-10.82647 16.27559 0.00000
360 18 1 	-10.42088 16.56084 0.00000
361 18 1 	-9.33536 17.86189 0.00000
362 18 1 	-9.38580 17.59050 0.00000
363 18 1 	-8.27952 18.57413 0.00000
364 18 1 	-7.96047 18.79951 0.00000
365 18 1 	-7.60820 18.82893 0.00000
366 18 1 	-9.13451 19.89323 0.00000
367 18 1 	-10.10487 20.37051 0.00000
368 18 1 	-10.45819 20.16820 0.00000
369 18 1 	-10.46114 20.94580 0.00000
370 18 1 	-9.89740 20.83401 0.00000
371 18 1 	-9.46925 19.99643 0.00000
372 18 1 	-8.93676 20.12253 0.00000
373 18 1 	-8.76569 20.69449 0.00000
374 18 1 	-8.09096 19.25125 0.00000
375 18 1 	-7.87561 18.32595 0.00000
376 18 1 	-6.82869 17.62313 0.00000
377 18 1 	-8.01371 17.62324 0.00000
378 18 1 	-8.25046 17.76677 0.00000
379 19 1 	15.37461 11.19530 0.00000
380 19 1 	15.16195 11.79179 0.00000
381 19 1 	15.89783 11.35464 0.00000
382 19 1 	16.42799 10.42696 0.00000
383 19 1 	15.02720 11.57401 0.00000
384 19 1 	14.93796 11.55029 0.00000
385 19 1 	16.13811 11.06049 0.00000
386 19 1 	17.12483 10.29141 0.00000
387 19 1 	17.34539 10.36581 0.00000
388 19 1 	17.30892 9.87366 0.00000
389 19 1 	18.93057 9.73981 0.00000
390 19 1 	19.32414 9.17721 0.00000
391 19 1 	19.96903 9.13190 0.00000
392 19 1 	19.05651 9.59108 0.00000
393 19 1 	19.71156 9.69906 0.00000
394 19 1 	20.19445 9.82790 0.00000
395 19 1 	20.10509 9.41651 0.00000
396 19 1 	20.22701 7.99141 0.00000
397 19 1 	19.95332 8.56470 0.00000
398 19 1 	21.05129 8.73995 0.00000
399 19 1 	20.97341 7.33949 0.00000
400 20 1 	0.32067 13.63468 0.00000
401 20 1 	0.50557 14.03537 0.00000
402 20 1 	0.68307 14.53380 0.00000
403 20 1 	-0.02148 14.06231 0.00000
404 20 1 	1.50546 13.44320 0.00000
405 20 1 	1.52478 14.26226 0.00000
406 20 1 	1.39313 14.40115 0.00000
407 20 1 	2.61122 14.57570 0.00000
408 20 1 	2.51828 14.47157 0.00000
409 20 1 	1.54380 14.59284 0.00000
410 20 1 	1.25873 15.40563 0.00000
411 20 1 	0.44137 16.03145 0.00000
412 20 1 	-1.03532 16.26297 0.00000
413 20 1 	-1.62498 17.13389 0.00000
414 20 1 	-0.83489 15.98500 0.00000
415 20 1 	0.19506 15.76185 0.00000
416 20 1 	-0.24515 15.80930 0.00000
417 20 1 	-0.59883 16.39065 0.00000
418 20 1 	-0.09079 16.86328 0.00000
419 20 1 	0.32724 17.17782 0.00000
420 20 1 	0.58550 17.45474 0.00000
421 21 1 	13.39906 -6.37842 0.00000
422 21 1 	13.77732 -6.08666 0.00000
423 21 1 	13.27998 -6.85082 0.00000
424 21 1 	13.79820 -6.67812 0.00000
425 21 1 	13.03405 -7.74309 0.00000
426 21 1 	13.13526 -7.83575 0.00000
427 21 1 	12.86047 -7.10135 0.00000
428 21 1 	12.53368 -7.37323 0.00000
429 21 1 	11.65012 -7.67813 0.00000
430 21 1 	9.65683 -7.41353 0.00000
431 21 1 	9.90667 -6.86937 0.00000
432 21 1 	9.82161 -7.40705 0.00000
433 21 1 	10.04972 -6.59765 0.00000
434 21 1 	9.27011 -6.04034 0.00000
435 21 1 	8.34327 -6.08837 0.00000
436 21 1 	7.04737 -6.94675 0.00000
437 21 1 	7.17415 -8.08210 0.00000
438 21 1 	5.92700 -8.87069 0.00000
439 21 1 	4.45243 -9.11417 0.00000
440 21 1 	4.62940 -8.49375 0.00000
441 21 1 	3.48777 -9.05731 0.00000
442 22 1 	16.22301 -2.99113 0.00000
443 22 1 	16.87640 -2.99140 0.00000
444 22 1 	16.92418 -1.87920 0.00000
445 22 1 	16.18690 -2.04984 0.00000
446 22 1 	17.53752 -3.19866 0.00000
447 22 1 	17.75034 -1.35003 0.00000
448 22 1 	17.97746 -1.35020 0.00000
449 22 1 	18.99504 -0.95404 0.00000
450 22 1 	19.09575 -1.61336 0.00000
451 22 1 	19.93471 -1.75987 0.00000
452 22 1 	20.87684 -1.26128 0.00000
453 22 1 	20.82141 -1.54139 0.00000
454 22 1 	21.26818 -1.07902 0.00000
455 22 1 	20.93636 -1.19717 0.00000
456 22 1 	21.25152 -1.40329 0.00000
457 22 1 	22.06322 -0.68139 0.00000
458 22 1 	22.15241 -0.69337 0.00000
459 22 1 	21.59135 -0.30505 0.00000
460 22 1 	21.76048 -1.10445 0.00000
461 22 1 	21.69585 -0.21101 0.00000
462 22 1 	20.40797 0.73987 0.00000
463 23 1 	11.33567 -8.75124 0.00000
464 23 1 	11.96299 -9.65986 0.00000
465 23 1 	11.37696 -8.85134 0.00000
466 23 1 	10.61608 -7.22399 0.00000
467 23 1 	11.94302 -6.18533 0.00000
468 23 1 	11.42181 -4.84321 0.00000
469 23 1 	11.48582 -4.66563 0.00000
470 23 1 	11.40051 -4.29377 0.00000
471 23 1 	11.15030 -4.29849 0.00000
472 23 1 	12.12422 -4.30976 0.00000
473 23 1 	13.17221 -5.41722 0.00000
474 23 1 	14.04437 -6.22861 0.00000
475 23 1 	14.04152 -5.40530 0.00000
476 23 1 	14.80132 -5.16659 0.00000
477 23 1 	12.96180 -6.13063 0.00000
478 23 1 	13.74368 -5.37599 0.00000
479 23 1 	13.90720 -4.23959 0.00000
480 23 1 	12.93677 -3.27017 0.00000
481 23 1 	13.12235 -1.93940 0.00000
482 23 1 	12.86883 -1.48661 0.00000
483 23 1 	12.92547 -2.38941 0.00000
484 24 1 	-16.13764 16.11747 0.00000
485 24 1 	-16.64481 16.61974 0.00000
486 24 1 	-17.59677 16.55320 0.00000
487 24 1 	-17.02746 14.82149 0.00000
488 24 1 	-16.73497 15.33336 0.00000
489 24 1 	-16.59618 15.12021 0.00000
490 24 1 	-15.83158 14.60979 0.00000
491 24 1 	-15.59692 14.42826 0.00000
492 24 1 	-15.76750 16.29979 0.00000
493 24 1 	-15.95782 17.23054 0.00000
494 24 1 	-16.01170 17.07724 0.00000
495 24 1 	-14.72503 17.71195 0.00000
496 24 1 	-14.89042 17.29235 0.00000
497 24 1 	-15.57353 17.49050 0.00000
498 24 1 	-16.08509 16.56946 0.00000
499 24 1 	-17.78249 15.57946 0.00000
500 24 1 	-18.75664 15.97263 0.00000
501 24 1 	-18.91468 16.53169 0.00000
502 24 1 	-19.23921 17.55499 0.00000
503 24 1 	-17.64194 16.69163 0.00000
504 24 1 	-18.14839 16.94934 0.00000
505 25 1 	-0.45944 12.37235 0.00000
506 25 1 	-0.73421 10.71103 0.00000
507 25 1 	-0.18292 10.63346 0.00000
508 25 1 	0.35748 10.06707 0.00000
509 25 1 	-0.11911 10.66343 0.00000
510 25 1 	0.02151 10.60936 0.00000
511 25 1 	-0.39085 10.30262 0.00000
512 25 1 	-0.46355 9.98410 0.00000
513 25 1 	0.18577 9.88634 0.00000
514 25 1 	0.31270 9.59291 0.00000
515 25 1 	0.87793 8.65192 0.00000
516 25 1 	1.40042 10.21859 0.00000
517 25 1 	1.83745 10.61421 0.00000
518 25 1 	0.48245 11.16343 0.00000
519 25 1 	0.30454 10.12449 0.00000
520 25 1 	-0.38105 9.67436 0.00000
521 25 1 	-0.71077 9.91106 0.00000
522 25 1 	-1.52191 8.04863 0.00000
523 25 1 	-1.80187 8.42226 0.00000
524 25 1 	-1.65476 9.05714 0.00000
525 25 1 	-1.74497 9.43530 0.00000
526 26 1 	-0.98143 -6.00084 0.00000
527 26 1 	-0.53558 -5.41093 0.00000
528 26 1 	-0.78713 -5.86610 0.00000
529 26 1 	-1.00992 -4.84065 0.00000
530 26 1 	-0.88664 -6.09787 0.00000
531 26 1 	-0.41853 -6.79713 0.00000
532 26 1 	-0.55916 -7.23924 0.00000
533 26 1 	0.73195 -6.29674 0.00000
534 26 1 	1.60289 -5.82657 0.00000
535 26 1 	1.01066 -6.66314 0.00000
536 26 1 	0.25442 -6.55327 0.00000
537 26 1 	-0.09925 -5.86354 0.00000
538 26 1 	-0.58792 -6.52151 0.00000
539 26 1 	-0.71100 -7.31717 0.00000
540 26 1 	-0.66796 -8.05719 0.00000
541 26 1 	-1.62997 -7.23814 0.00000
542 26 1 	-1.23090 -7.34167 0.00000
543 26 1 	-1.29172 -7.51354 0.00000
544 26 1 	-1.35944 -6.56306 0.00000
545 26 1 	-1.83429 -7.59271 0.00000
546 26 1 	-2.40589 -9.14709 0.00000
547 27 1 	6.44430 12.27201 0.00000
548 27 1 	5.11716 13.12411 0.00000
549 27 1 	6.30543 14.23484 0.00000
550 27 1 	6.35914 14.35591 0.00000
551 27 1 	6.33993 13.82211 0.00000
552 27 1 	5.91653 12.85362 0.00000
553 27 1 	5.03283 13.68082 0.00000
554 27 1 	4.59770 14.59794 0.00000
555 27 1 	5.79139 14.55390 0.00000
556 27 1 	6.43622 14.53861 0.00000
557 27 1 	6.06985 14.62670 0.00000
558 27 1 	6.58935 14.72802 0.00000
559 27 1 	6.14716 14.84410 0.00000
560 27 1 	5.07491 14.96127 0.00000
561 27 1 	4.97107 13.41229 0.00000
562 27 1 	5.72818 13.17223 0.00000
563 27 1 	5.51671 12.97305 0.00000
564 27 1 	5.66602 14.36685 0.00000
565 27 1 	6.08488 14.87827 0.00000
566 27 1 	5.35930 15.16462 0.00000
567 27 1 	5.85748 14.90219 0.00000
568 28 1 	3.90878 -12.46969 0.00000
569 28 1 	4.50010 -12.65764 0.00000
570 28 1 	3.71917 -13.83699 0.00000
571 28 1 	4.24860 -14.85279 0.00000
572 28 1 	3.69994 -16.57065 0.00000
573 28 1 	3.45508 -16.88631 0.00000
574 28 1 	3.40746 -17.01160 0.00000
575 28 1 	2.92678 -16.03013 0.00000
576 28 1 	2.39735 -15.51157 0.00000
577 28 1 	1.82192 -15.85590 0.00000
578 28 1 	1.40047 -16.22862 0.00000
579 28 1 	2.09759 -15.54747 0.00000
580 28 1 	1.98021 -15.96438 0.00000
581 28 1 	1.32827 -14.35547 0.00000
582 28 1 	2.15552 -15.98068 0.00000
583 28 1 	3.32331 -16.52145 0.00000
584 28 1 	3.29408 -16.59628 0.00000
585 28 1 	5.20228 -17.79741 0.00000
586 28 1 	4.23216 -19.23980 0.00000
587 28 1 	5.12305 -19.59322 0.00000
588 28 1 	5.14327 -20.62993 0.00000
589 29 1 	-9.26914 -2.00589 0.00000
590 29 1 	-8.99095 -2.55456 0.00000
591 29 1 	-8.67661 -4.00275 0.00000
592 29 1 	-8.29128 -4.24588 0.00000
593 29 1 	-8.75356 -2.64297 0.00000
594 29 1 	-7.88413 -2.76426 0.00000
595 29 1 	-7.33532 -2.48974 0.00000
596 29 1 	-7.78835 -2.23192 0.00000
597 29 1 	-7.05540 -3.03296 0.00000
598 29 1 	-7.65073 -3.82667 0.00000
599 29 1 	-9.44962 -3.87801 0.00000
600 29 1 	-9.98608 -4.02246 0.00000
601 29 1 	-9.44183 -3.95534 0.00000
602 29 1 	-9.41297 -4.25348 0.00000
603 29 1 	-9.32560 -4.10176 0.00000
604 29 1 	-9.21989 -3.83095 0.00000
605 29 1 	-8.73440 -3.84424 0.00000
606 29 1 	-8.42021 -2.60188 0.00000
607 29 1 	-9.11015 -2.98399 0.00000
608 29 1 	-9.82907 -2.81323 0.00000
609 29 1 	-9.65063 -2.73049 0.00000
610 30 1 	-4.12070 -7.28708 0.00000
611 30 1 	-4.10140 -6.40402 0.00000
612 30 1 	-4.93100 -6.81108 0.00000
613 30 1 	-5.98295 -5.63988 0.00000
614 30 1 	-6.96935 -5.52430 0.00000
615 30 1 	-6.89810 -5.82685 0.00000
616 30 1 	-6.39783 -5.34358 0.00000
617 30 1 	-6.09232 -5.67871 0.00000
618 30 1 	-6.12062 -5.66950 0.00000
619 30 1 	-6.80493 -5.34647 0.00000
620 30 1 	-7.15617 -7.15283 0.00000
621 30 1 	-7.31731 -6.45971 0.00000
622 30 1 	-7.21749 -5.76916 0.00000
623 30 1 	-6.88898 -5.48759 0.00000
624 30 1 	-6.29156 -5.15965 0.00000
625 30 1 	-6.03964 -4.93129 0.00000
626 30 1 	-5.49913 -5.25279 0.00000
627 30 1 	-6.30799 -5.34590 0.00000
628 30 1 	-5.72492 -5.01573 0.00000
629 30 1 	-5.60003 -5.60697 0.00000
630 30 1 	-4.31992 -5.08806 0.00000
631 31 1 	-14.79592 -6.86589 0.00000
632 31 1 	-15.24051 -6.61855 0.00000
633 31 1 	-16.02358 -7.16406 0.00000
634 31 1 	-15.33688 -7.71899 0.00000
635 31 1 	-15.98880 -8.52369 0.00000
636 31 1 	-15.54290 -9.19972 0.00000
637 31 1 	-15.05321 -9.23259 0.00000
638 31 1 	-14.76352 -9.34862 0.00000
639 31 1 	-14.67788 -6.98491 0.00000
640 31 1 	-14.01188 -6.47141 0.00000
641 31 1 	-14.46488 -6.65894 0.00000
642 31 1 	-15.36718 -6.98318 0.00000
643 31 1 	-16.73655 -6.92943 0.00000
644 31 1 	-15.43560 -7.85232 0.00000
645 31 1 	-14.87437 -7.27150 0.00000
646 31 1 	-13.84251 -8.13965 0.00000
647 31 1 	-13.40328 -8.22527 0.00000
648 31 1 	-14.06625 -8.70591 0.00000
649 31 1 	-14.80230 -8.92128 0.00000
650 31 1 	-12.95428 -9.36278 0.00000
651 31 1 	-13.52577 -9.47532 0.00000
652 32 1 	-11.30271 9.23885 0.00000
653 32 1 	-9.61615 8.82383 0.00000
654 32 1 	-9.46202 8.81803 0.00000
655 32 1 	-9.24363 8.68753 0.00000
656 32 1 	-9.60076 8.12314 0.00000
657 32 1 	-9.39227 8.25891 0.00000
658 32 1 	-9.96382 7.03210 0.00000
659 32 1 	-9.94602 6.74733 0.00000
660 32 1 	-10.10310 5.94329 0.00000
661 32 1 	-10.40863 6.19709 0.00000
662 32 1 	-11.01993 5.33100 0.00000
663 32 1 	-10.86670 4.70435 0.00000
664 32 1 	-10.39121 3.75996 0.00000
665 32 1 	-11.37704 4.56405 0.00000
666 32 1 	-11.56230 6.19899 0.00000
667 32 1 	-11.32209 6.27349 0.00000
668 32 1 	-10.99878 5.96842 0.00000
669 32 1 	-10.53179 5.47762 0.00000
670 32 1 	-9.78161 5.43517 0.00000
671 32 1 	-10.73568 6.08028 0.00000
672 32 1 	-9.20661 7.44835 0.00000
673 33 1 	13.53960 -8.57331 0.00000
674 33 1 	13.06208 -8.92401 0.00000
675 33 1 	12.25815 -9.43273 0.00000
676 33 1 	12.80847 -9.78687 0.00000
677 33 1 	11.79000 -10.68477 0.00000
678 33 1 	12.72056 -11.40755 0.00000
679 33 1 	10.59400 -12.94017 0.00000
680 33 1 	11.21439 -12.78948 0.00000
681 33 1 	10.92978 -13.02130 0.00000
682 33 1 	12.13335 -13.27758 0.00000
683 33 1 	10.98689 -13.07409 0.00000
684 33 1 	12.61401 -12.69182 0.00000
685 33 1 	12.62894 -13.21833 0.00000
686 33 1 	11.84475 -12.48453 0.00000
687 33 1 	12.18510 -11.98082 0.00000
688 33 1 	13.07722 -11.19532 0.00000
689 33 1 	12.84821 -10.01081 0.00000
690 33 1 	13.30862 -9.86313 0.00000
691 33 1 	13.57485 -10.78824 0.00000
692 33 1 	14.33757 -10.19110 0.00000
693 33 1 	16.64491 -9.53509 0.00000
694 34 1 	-10.21278 -10.87923 0.00000
695 34 1 	-10.42993 -11.73608 0.00000
696 34 1 	-10.66613 -12.14259 0.00000
697 34 1 	-11.57842 -9.26435 0.00000
698 34 1 	-12.47274 -9.89105 0.00000
699 34 1 	-13.77750 -10.08099 0.00000
700 34 1 	-12.74856 -9.04548 0.00000
701 34 1 	-14.45493 -8.37854 0.00000
702 34 1 	-15.20914 -8.82480 0.00000
703 34 1 	-15.93512 -8.91613 0.00000
704 34 1 	-15.86745 -7.94950 0.00000
705 34 1 	-15.92891 -7.71397 0.00000
706 34 1 	-16.26330 -7.63170 0.00000
707 34 1 	-16.33150 -7.09498 0.00000
708 34 1 	-16.10858 -7.17772 0.00000
709 34 1 	-15.95270 -7.31307 0.00000
710 34 1 	-14.84111 -7.01795 0.00000
711 34 1 	-14.93112 -7.69133 0.00000
712 34 1 	-14.50310 -7.64084 0.00000
713 34 1 	-13.69673 -8.45553 0.00000
714 34 1 	-13.98128 -8.96234 0.00000
715 35 1 	3.79149 4.43930 0.00000
716 35 1 	4.98301 5.16627 0.00000
717 35 1 	4.67458 5.48269 0.00000
718 35 1 	4.62845 4.95370 0.00000
719 35 1 	5.14557 5.69279 0.00000
720 35 1 	5.08579 6.04317 0.00000
721 35 1 	4.87881 6.73480 0.00000
722 35 1 	3.72436 6.88290 0.00000
723 35 1 	3.58130 6.70283 0.00000
724 35 1 	4.12120 8.37372 0.00000
725 35 1 	3.85787 7.75479 0.00000
726 35 1 	3.72490 7.02692 0.00000
727 35 1 	2.95922 7.03101 0.00000
728 35 1 	2.47364 6.69593 0.00000
729 35 1 	3.18769 6.51039 0.00000
730 35 1 	3.63309 5.41101 0.00000
731 35 1 	3.09545 5.82103 0.00000
732 35 1 	3.03447 6.41731 0.00000
733 35 1 	3.15546 6.42700 0.00000
734 35 1 	3.56219 5.70319 0.00000
735 35 1 	4.39859 5.55716 0.00000
736 36 1 	-12.75926 18.04153 0.00000
737 36 1 	-12.02204 18.40574 0.00000
738 36 1 	-13.08505 18.34283 0.00000
739 36 1 	-11.70944 18.86438 0.00000
740 36 1 	-11.39404 19.35874 0.00000
741 36 1 	-11.78307 19.83682 0.00000
742 36 1 	-11.26863 19.72136 0.00000
743 36 1 	-11.91491 19.64023 0.00000
744 36 1 	-12.07139 18.81568 0.00000
745 36 1 	-11.76174 18.66464 0.00000
746 36 1 	-10.55427 18.17695 0.00000
747 36 1 	-11.27056 18.66710 0.00000
748 36 1 	-11.73830 19.69071 0.00000
749 36 1 	-11.27754 19.67676 0.00000
750 36 1 	-10.09507 18.41496 0.00000
751 36 1 	-10.46939 18.28162 0.00000
752 36 1 	-11.86281 17.72018 0.00000
753 36 1 	-11.52623 18.50443 0.00000
754 36 1 	-10.44991 16.64173 0.00000
755 36 1 	-9.43884 16.83659 0.00000
756 36 1 	-9.82288 16.72519 0.00000
757 37 1 	-10.13718 12.80049 0.00000
758 37 1 	-10.87199 12.71033 0.00000
759 37 1 	-8.95800 12.56837 0.00000
760 37 1 	-8.46211 12.50048 0.00000
761 37 1 	-8.33306 12.56978 0.00000
762 37 1 	-9.46688 12.58765 0.00000
763 37 1 	-10.48549 12.41232 0.00000
764 37 1 	-9.96272 13.01950 0.00000
765 37 1 	-10.65843 12.24708 0.00000
766 37 1 	-10.10499 11.88100 0.00000
767 37 1 	-10.26935 11.49452 0.00000
768 37 1 	-9.68318 11.58760 0.00000
769 37 1 	-9.12749 12.30661 0.00000
770 37 1 	-9.09254 12.57505 0.00000
771 37 1 	-8.58858 13.87978 0.00000
772 37 1 	-9.02025 14.90913 0.00000
773 37 1 	-8.91762 16.21964 0.00000
774 37 1 	-8.52017 16.91858 0.00000
775 37 1 	-8.58799 16.26608 0.00000
776 37 1 	-8.68896 17.02679 0.00000
777 37 1 	-10.39716 17.24472 0.00000
778 38 1 	-11.97521 7.02075 0.00000
779 38 1 	-11.23660 6.52944 0.00000
780 38 1 	-12.17962 6.98831 0.00000
781 38 1 	-10.87154 7.69608 0.00000
782 38 1 	-9.97861 6.54413 0.00000
783 38 1 	-10.38449 6.32744 0.00000
784 38 1 	-10.63009 5.73820 0.00000
785 38 1 	-9.77649 5.43676 0.00000
786 38 1 	-10.21346 5.93585 0.00000
787 38 1 	-10.68992 6.10223 0.00000
788 38 1 	-10.34812 6.17947 0.00000
789 38 1 	-10.52348 6.54933 0.00000
790 38 1 	-11.01907 6.72183 0.00000
791 38 1 	-9.71054 6.79135 0.00000
792 38 1 	-9.00068 6.93719 0.00000
793 38 1 	-9.13725 7.90717 0.00000
794 38 1 	-10.33590 8.21776 0.00000
795 38 1 	-10.45560 9.89659 0.00000
796 38 1 	-10.81522 9.96999 0.00000
797 38 1 	-10.84091 10.68818 0.00000
798 38 1 	-10.21086 10.62823 0.00000
799 39 1 	12.63934 -6.69144 0.00000
800 39 1 	12.45577 -7.57473 0.00000
801 39 1 	12.84998 -8.03275 0.00000
802 39 1 	11.61344 -7.63609 0.00000
803 39 1 	11.93474 -7.30168 0.00000
804 39 1 	12.16347 -7.02870 0.00000
805 39 1 	12.59693 -7.19918 0.00000
806 39 1 	11.96349 -7.46225 0.00000
807 39 1 	12.28594 -7.62785 0.00000
808 39 1 	11.74032 -6.39312 0.00000
809 39 1 	11.83677 -5.42397 0.00000
810 39 1 	12.35461 -4.99207 0.00000
811 39 1 	13.08933 -6.42568 0.00000
812 39 1 	11.20783 -6.08826 0.00000
813 39 1 	10.47861 -5.25790 0.00000
814 39 1 	11.35854 -4.64136 0.00000
815 39 1 	10.87493 -4.08592 0.00000
816 39 1 	12.36715 -3.97338 0.00000
817 39 1 	11.94537 -4.87605 0.00000
818 39 1 	10.96436 -4.43554 0.00000
819 39 1 	11.43133 -3.85030 0.00000
820 40 1 	19.37509 14.17420 0.00000
821 40 1 	19.83147 14.54583 0.00000
822 40 1 	20.78575 13.31133 0.00000
823 40 1 	21.69593 13.01966 0.00000
824 40 1 	20.78732 13.08159 0.00000
825 40 1 	19.47079 12.54508 0.00000
826 40 1 	18.81594 11.62134 0.00000
827 40 1 	19.32279 12.44710 0.00000
828 40 1 	19.02596 12.43225 0.00000
829 40 1 	19.75898 11.73893 0.00000
830 40 1 	19.31550 11.77408 0.00000
831 40 1 	18.73252 12.36946 0.00000
832 40 1 	17.39598 12.29322 0.00000
833 40 1 	17.42134 10.68357 0.00000
834 40 1 	18.85739 9.43870 0.00000
835 40 1 	17.88670 9.14520 0.00000
836 40 1 	18.51919 9.31997 0.00000