LAMMPS Description

5100 atoms
5000 bonds

3 atom types
1 bond types

-20 20 xlo xhi
-20 20 ylo yhi
-20 20 zlo zhi

Masses

1 1
2 1
3 1

Atoms # id mol type xu yu zu

1 1 1 	19.75556 14.33853 0.00000
2 1 1 	19.71367 14.69344 0.00000
3 1 1 	18.41072 14.04056 0.00000
4 1 1 	19.18297 14.30611 0.00000
5 1 1 	19.75050 14.71750 0.00000
6 1 1 	20.65791 13.72179 0.00000
7 1 1 	19.15213 14.00007 0.00000
8 1 1 	20.73691 14.29034 0.00000
9 1 1 	20.42767 14.46861 0.00000
10 1 1 	20.37780 13.62520 0.00000
11 1 1 	20.52130 13.44523 0.00000
12 1 1 	20.69230 12.27857 0.00000
13 1 1 	20.14030 10.69622 0.00000
14 1 1 	17.47867 10.75247 0.00000
15 1 1 	16.41985 12.03248 0.00000
16 1 1 	17.25131 11.39143 0.00000
17 1 1 	17.67264 11.39285 0.00000
18 1 1 	18.71513 11.27839 0.00000
19 1 1 	19.35710 11.41796 0.00000
20 1 1 	19.23747 11.24083 0.00000
21 1 1 	18.51520 11.22564 0.00000
22 1 1 	19.04502 11.68746 0.00000
23 1 1 	20.47420 11.82460 0.00000
24 1 1 	21.61597 11.28448 0.00000
25 1 1 	21.76649 11.02756 0.00000
26 1 1 	20.93606 11.31405 0.00000
27 1 1 	20.73443 11.74201 0.00000
28 1 1 	21.14110 11.72020 0.00000
29 1 1 	21.39590 10.87750 0.00000
30 1 1 	21.75021 9.86033 0.00000
31 1 1 	21.35007 8.94940 0.00000
32 1 1 	20.88103 8.81599 0.00000
33 1 1 	21.42435 8.82226 0.00000
34 1 1 	23.26301 8.46326 0.00000
35 1 1 	23.59011 8.45541 0.00000
36 1 1 	23.50212 8.73311 0.00000
37 1 1 	23.98663 9.55827 0.00000
38 1 1 	23.35610 9.83677 0.00000
39 1 1 	22.85716 8.99673 0.00000
40 1 1 	23.04022 8.01653 0.00000
41 1 1 	23.52785 7.80460 0.00000
42 1 1 	22.25264 7.95878 0.00000
43 1 1 	22.29530 7.44268 0.00000
44 1 1 	22.31790 7.85615 0.00000
45 1 1 	21.69751 7.54409 0.00000
46 1 1 	22.68954 8.07033 0.00000
47 1 1 	21.53606 7.60521 0.00000
48 1 1 	23.21290 7.96714 0.00000
49 1 1 	23.90314 8.65603 0.00000
50 1 1 	23.96008 7.96308 0.00000
51 1 1 	23.24665 8.38149 0.00000
52 2 1 	-2.46865 -7.38091 0.00000
53 2 1 	-2.80550 -7.04000 0.00000
54 2 1 	-4.22661 -6.44940 0.00000
55 2 1 	-4.61927 -6.24697 0.00000
56 2 1 	-4.90269 -6.47069 0.00000
57 2 1 	-4.59525 -6.73393 0.00000
58 2 1 	-3.17057 -7.36142 0.00000
59 2 1 	-3.18457 -7.30182 0.00000
60 2 1 	-4.40233 -6.89013 0.00000
61 2 1 	-4.22673 -7.56510 0.00000
62 2 1 	-4.06762 -6.77475 0.00000
63 2 1 	-4.70115 -5.09279 0.00000
64 2 1 	-4.98691 -5.45539 0.00000
65 2 1 	-5.41279 -5.49699 0.00000
66 2 1 	-6.94967 -5.70714 0.00000
67 2 1 	-7.65860 -5.81759 0.00000
68 2 1 	-7.55467 -4.79018 0.00000
69 2 1 	-8.52065 -4.81542 0.00000
70 2 1 	-8.74501 -4.73642 0.00000
71 2 1 	-9.01556 -5.06572 0.00000
72 2 1 	-8.08720 -4.24933 0.00000
73 2 1 	-7.37865 -4.80083 0.00000
74 2 1 	-6.46123 -4.71018 0.00000
75 2 1 	-7.22947 -5.01113 0.00000
76 2 1 	-7.29299 -4.86498 0.00000
77 2 1 	-6.19660 -5.32746 0.00000
78 2 1 	-6.80983 -5.24643 0.00000
79 2 1 	-6.78735 -5.65794 0.00000
80 2 1 	-7.40423 -4.54034 0.00000
81 2 1 	-7.40687 -4.37626 0.00000
82 2 1 	-8.14900 -5.45545 0.00000
83 2 1 	-9.16556 -5.72875 0.00000
84 2 1 	-9.65787 -4.85709 0.00000
85 2 1 	-9.70168 -4.96872 0.00000
86 2 1 	-8.28712 -3.65176 0.00000
87 2 1 	-8.25419 -3.99174 0.00000
88 2 1 	-8.23060 -4.75896 0.00000
89 2 1 	-7.78113 -4.75106 0.00000
90 2 1 	-8.61567 -4.65341 0.00000
91 2 1 	-9.73328 -4.63646 0.00000
92 2 1 	-8.94555 -5.40925 0.00000
93 2 1 	-10.60225 -6.27122 0.00000
94 2 1 	-10.62335 -6.09050 0.00000
95 2 1 	-11.02504 -7.01463 0.00000
96 2 1 	-9.99204 -6.47620 0.00000
97 2 1 	-10.26623 -5.42422 0.00000
98 2 1 	-9.13802 -6.17052 0.00000
99 2 1 	-8.92858 -5.88928 0.00000
100 2 1 	-8.61729 -5.46121 0.00000
101 2 1 	-7.22388 -4.37209 0.00000
102 2 1 	-7.90150 -4.99483 0.00000
103 3 1 	6.30450 -15.76337 0.00000
104 3 1 	5.96767 -16.25740 0.00000
105 3 1 	6.35741 -16.27135 0.00000
106 3 1 	6.23908 -15.48175 0.00000
107 3 1 	5.25573 -14.87897 0.00000
108 3 1 	6.01112 -14.92739 0.00000
109 3 1 	6.29378 -15.27335 0.00000
110 3 1 	7.17625 -13.95650 0.00000
111 3 1 	5.78380 -13.21182 0.00000
112 3 1 	5.31852 -12.74395 0.00000
113 3 1 	5.02237 -12.27216 0.00000
114 3 1 	5.30318 -10.03106 0.00000
115 3 1 	5.73388 -10.00229 0.00000
116 3 1 	6.31778 -10.04033 0.00000
117 3 1 	6.13005 -9.08146 0.00000
118 3 1 	5.82875 -8.61958 0.00000
119 3 1 	6.12878 -8.35966 0.00000
120 3 1 	6.03331 -8.37922 0.00000
121 3 1 	5.87398 -8.25867 0.00000
122 3 1 	6.11181 -7.06179 0.00000
123 3 1 	5.34693 -6.75820 0.00000
124 3 1 	5.68843 -5.50631 0.00000
125 3 1 	5.06031 -6.07775 0.00000
126 3 1 	5.79141 -5.66964 0.00000
127 3 1 	6.48372 -5.35943 0.00000
128 3 1 	7.17973 -4.98653 0.00000
129 3 1 	7.81686 -5.45355 0.00000
130 3 1 	7.95063 -4.97814 0.00000
131 3 1 	9.13109 -4.63990 0.00000
132 3 1 	10.70621 -4.32503 0.00000
133 3 1 	11.68913 -4.10911 0.00000
134 3 1 	11.32878 -5.06567 0.00000
135 3 1 	10.97486 -5.65450 0.00000
136 3 1 	10.68176 -5.66297 0.00000
137 3 1 	10.58765 -6.67066 0.00000
138 3 1 	10.59076 -6.56294 0.00000
139 3 1 	11.03673 -6.15876 0.00000
140 3 1 	10.72418 -6.62087 0.00000
141 3 1 	9.86857 -6.15029 0.00000
142 3 1 	10.36490 -5.87223 0.00000
143 3 1 	10.47121 -5.66330 0.00000
144 3 1 	11.10515 -7.42244 0.00000
145 3 1 	10.76593 -6.76656 0.00000
146 3 1 	10.66687 -7.14908 0.00000
147 3 1 	9.64346 -6.08625 0.00000
148 3 1 	8.94805 -6.05135 0.00000
149 3 1 	8.50917 -5.04061 0.00000
150 3 1 	8.05189 -6.27270 0.00000
151 3 1 	9.45959 -6.29869 0.00000
152 3 1 	9.17876 -4.51242 0.00000
153 3 1 	9.56770 -5.09804 0.00000
154 4 1 	11.91810 9.51426 0.00000
155 4 1 	11.31472 10.59513 0.00000
156 4 1 	9.09614 11.82013 0.00000
157 4 1 	8.77202 11.98505 0.00000
158 4 1 	9.01237 11.94342 0.00000
159 4 1 	9.59769 11.49987 0.00000
160 4 1 	9.20234 10.77102 0.00000
161 4 1 	10.10999 11.72882 0.00000
162 4 1 	8.78052 11.96035 0.00000
163 4 1 	9.06755 13.24157 0.00000
164 4 1 	8.97983 12.70296 0.00000
165 4 1 	9.61287 12.15057 0.00000
166 4 1 	8.91852 12.86872 0.00000
167 4 1 	9.45265 12.17927 0.00000
168 4 1 	10.00292 12.64332 0.00000
169 4 1 	9.10641 12.00230 0.00000
170 4 1 	10.25000 11.77727 0.00000
171 4 1 	11.11100 11.42011 0.00000
172 4 1 	10.74537 12.70861 0.00000
173 4 1 	10.83858 12.18228 0.00000
174 4 1 	11.04495 10.91391 0.00000
175 4 1 	11.07283 11.10037 0.00000
176 4 1 	10.34344 11.07079 0.00000
177 4 1 	10.17883 10.95522 0.00000
178 4 1 	11.59150 11.40862 0.00000
179 4 1 	11.64281 12.49888 0.00000
180 4 1 	11.92456 12.21842 0.00000
181 4 1 	11.89189 11.03378 0.00000
182 4 1 	11.76292 10.45812 0.00000
183 4 1 	12.31735 10.04350 0.00000
184 4 1 	12.10282 9.80046 0.00000
185 4 1 	13.38981 9.34806 0.00000
186 4 1 	12.12738 9.76585 0.00000
187 4 1 	11.22157 10.08016 0.00000
188 4 1 	11.06032 9.04798 0.00000
189 4 1 	10.91749 8.54682 0.00000
190 4 1 	10.29886 9.23496 0.00000
191 4 1 	10.36175 9.38765 0.00000
192 4 1 	10.10217 7.58692 0.00000
193 4 1 	9.35649 8.59132 0.00000
194 4 1 	10.23787 7.99647 0.00000
195 4 1 	10.24613 6.82678 0.00000
196 4 1 	10.54434 6.46223 0.00000
197 4 1 	11.70237 6.68916 0.00000
198 4 1 	11.88179 7.84182 0.00000
199 4 1 	11.74288 8.25259 0.00000
200 4 1 	12.07366 8.66082 0.00000
201 4 1 	11.72935 9.02946 0.00000
202 4 1 	11.91106 8.43154 0.00000
203 4 1 	11.26886 9.16014 0.00000
204 4 1 	12.34202 8.59476 0.00000
205 5 1 	-11.14572 16.09752 0.00000
206 5 1 	-11.54954 16.86714 0.00000
207 5 1 	-11.14474 16.39735 0.00000
208 5 1 	-9.85091 17.57834 0.00000
209 5 1 	-10.00310 18.26232 0.00000
210 5 1 	-10.25362 18.51280 0.00000
211 5 1 	-10.53920 18.44613 0.00000
212 5 1 	-10.06608 18.78691 0.00000
213 5 1 	-9.53330 19.01554 0.00000
214 5 1 	-9.59110 18.47907 0.00000
215 5 1 	-9.63883 17.19206 0.00000
216 5 1 	-11.38135 16.51535 0.00000
217 5 1 	-10.86444 16.72078 0.00000
218 5 1 	-10.69354 18.70777 0.00000
219 5 1 	-9.25047 18.58994 0.00000
220 5 1 	-9.93183 17.59434 0.00000
221 5 1 	-9.76075 18.26564 0.00000
222 5 1 	-8.92598 17.71461 0.00000
223 5 1 	-7.64975 16.91349 0.00000
224 5 1 	-7.13142 17.09459 0.00000
225 5 1 	-7.78187 17.50011 0.00000
226 5 1 	-7.38780 16.81195 0.00000
227 5 1 	-8.09422 17.74422 0.00000
228 5 1 	-8.91835 18.16876 0.00000
229 5 1 	-9.59669 17.15638 0.00000
230 5 1 	-10.29849 17.99344 0.00000
231 5 1 	-9.62261 17.65358 0.00000
232 5 1 	-7.59240 16.87824 0.00000
233 5 1 	-8.33486 17.40895 0.00000
234 5 1 	-7.62592 18.24256 0.00000
235 5 1 	-7.18063 18.62509 0.00000
236 5 1 	-7.26340 17.92591 0.00000
237 5 1 	-7.10418 18.41282 0.00000
238 5 1 	-6.76780 18.12949 0.00000
239 5 1 	-7.43325 17.11938 0.00000
240 5 1 	-6.62703 18.38404 0.00000
241 5 1 	-5.60175 18.62926 0.00000
242 5 1 	-4.83374 19.79234 0.00000
243 5 1 	-3.45200 19.79423 0.00000
244 5 1 	-2.93130 19.53570 0.00000
245 5 1 	-2.49381 19.91947 0.00000
246 5 1 	-3.39919 21.48894 0.00000
247 5 1 	-2.85617 21.58285 0.00000
248 5 1 	-2.94153 21.30887 0.00000
249 5 1 	-3.20712 21.52668 0.00000
250 5 1 	-3.56328 22.60557 0.00000
251 5 1 	-3.85160 23.13355 0.00000
252 5 1 	-3.32779 23.49906 0.00000
253 5 1 	-4.62479 23.03798 0.00000
254 5 1 	-5.05042 22.90917 0.00000
255 5 1 	-5.39534 24.58555 0.00000
256 6 1 	-12.49352 2.72233 0.00000
257 6 1 	-13.46653 2.38126 0.00000
258 6 1 	-12.07900 2.36756 0.00000
259 6 1 	-11.35584 3.31732 0.00000
260 6 1 	-10.89199 3.07950 0.00000
261 6 1 	-11.37476 2.82034 0.00000
262 6 1 	-11.26025 2.88377 0.00000
263 6 1 	-11.57783 2.80370 0.00000
264 6 1 	-12.15396 3.68076 0.00000
265 6 1 	-12.93263 3.06726 0.00000
266 6 1 	-13.65157 3.95614 0.00000
267 6 1 	-13.45368 4.59048 0.00000
268 6 1 	-13.56225 4.14680 0.00000
269 6 1 	-12.09854 3.96382 0.00000
270 6 1 	-12.20139 3.58793 0.00000
271 6 1 	-11.78070 3.64201 0.00000
272 6 1 	-12.36189 3.54386 0.00000
273 6 1 	-11.39659 4.99713 0.00000
274 6 1 	-10.28351 3.49867 0.00000
275 6 1 	-9.13793 4.22920 0.00000
276 6 1 	-9.66349 3.25860 0.00000
277 6 1 	-8.86124 3.69858 0.00000
278 6 1 	-8.89545 3.28781 0.00000
279 6 1 	-9.45598 2.74869 0.00000
280 6 1 	-9.96625 1.80239 0.00000
281 6 1 	-10.66856 1.19185 0.00000
282 6 1 	-10.32455 1.45094 0.00000
283 6 1 	-9.80958 1.60304 0.00000
284 6 1 	-8.87712 1.49911 0.00000
285 6 1 	-8.06491 2.17260 0.00000
286 6 1 	-8.86782 2.24471 0.00000
287 6 1 	-9.04031 2.07735 0.00000
288 6 1 	-10.12778 2.34971 0.00000
289 6 1 	-9.61574 2.65375 0.00000
290 6 1 	-9.07832 2.42381 0.00000
291 6 1 	-9.31003 1.00583 0.00000
292 6 1 	-8.11409 1.12881 0.00000
293 6 1 	-8.34117 0.66885 0.00000
294 6 1 	-7.35212 -0.64156 0.00000
295 6 1 	-7.72639 -1.90026 0.00000
296 6 1 	-7.22095 -0.98653 0.00000
297 6 1 	-7.91883 -1.04326 0.00000
298 6 1 	-7.39252 -1.10313 0.00000
299 6 1 	-8.80115 -1.31450 0.00000
300 6 1 	-7.96533 0.40848 0.00000
301 6 1 	-7.45769 1.18687 0.00000
302 6 1 	-8.75447 1.82954 0.00000
303 6 1 	-9.36149 1.91864 0.00000
304 6 1 	-9.81044 0.96793 0.00000
305 6 1 	-10.26814 1.87296 0.00000
306 6 1 	-9.92793 1.51183 0.00000
307 7 1 	-13.34081 -4.54550 0.00000
308 7 1 	-12.62257 -3.47381 0.00000
309 7 1 	-13.97035 -3.42532 0.00000
310 7 1 	-13.54300 -4.36225 0.00000
311 7 1 	-14.18874 -4.30339 0.00000
312 7 1 	-14.17967 -4.60921 0.00000
313 7 1 	-13.57783 -4.39711 0.00000
314 7 1 	-14.29049 -5.20381 0.00000
315 7 1 	-15.17807 -5.30116 0.00000
316 7 1 	-15.46927 -4.24395 0.00000
317 7 1 	-16.06334 -3.93353 0.00000
318 7 1 	-15.55436 -3.91000 0.00000
319 7 1 	-15.55881 -4.13314 0.00000
320 7 1 	-16.49452 -3.87529 0.00000
321 7 1 	-15.60578 -4.36505 0.00000
322 7 1 	-16.37465 -4.13328 0.00000
323 7 1 	-15.98718 -5.00694 0.00000
324 7 1 	-17.00196 -5.14464 0.00000
325 7 1 	-16.15918 -6.20965 0.00000
326 7 1 	-16.06954 -7.05449 0.00000
327 7 1 	-16.06856 -6.96449 0.00000
328 7 1 	-15.70548 -7.47859 0.00000
329 7 1 	-15.92910 -6.96943 0.00000
330 7 1 	-16.51624 -6.64189 0.00000
331 7 1 	-15.81234 -5.87550 0.00000
332 7 1 	-16.08706 -5.85872 0.00000
333 7 1 	-15.15234 -5.40010 0.00000
334 7 1 	-14.94189 -4.54114 0.00000
335 7 1 	-14.42930 -5.22669 0.00000
336 7 1 	-13.83224 -4.88327 0.00000
337 7 1 	-12.95139 -3.55690 0.00000
338 7 1 	-13.26051 -3.85167 0.00000
339 7 1 	-12.86680 -3.00082 0.00000
340 7 1 	-13.29512 -3.82645 0.00000
341 7 1 	-14.40044 -4.44219 0.00000
342 7 1 	-13.83623 -5.37272 0.00000
343 7 1 	-13.08173 -5.85576 0.00000
344 7 1 	-13.03363 -5.82192 0.00000
345 7 1 	-12.38624 -4.76384 0.00000
346 7 1 	-11.95973 -4.67079 0.00000
347 7 1 	-12.11393 -4.94112 0.00000
348 7 1 	-11.30862 -3.60939 0.00000
349 7 1 	-10.16563 -3.57906 0.00000
350 7 1 	-9.34974 -3.97344 0.00000
351 7 1 	-8.00726 -5.74312 0.00000
352 7 1 	-6.63373 -6.49509 0.00000
353 7 1 	-7.19453 -6.61434 0.00000
354 7 1 	-6.38980 -7.17225 0.00000
355 7 1 	-6.49565 -7.33317 0.00000
356 7 1 	-7.00564 -7.45558 0.00000
357 7 1 	-6.75988 -7.43301 0.00000
358 8 1 	1.50252 13.95513 0.00000
359 8 1 	-0.27342 14.18230 0.00000
360 8 1 	-0.21723 14.66590 0.00000
361 8 1 	1.16607 16.21589 0.00000
362 8 1 	1.73196 16.18878 0.00000
363 8 1 	-0.15891 17.00609 0.00000
364 8 1 	-0.01179 16.85518 0.00000
365 8 1 	-0.64492 16.70897 0.00000
366 8 1 	-0.46467 17.52312 0.00000
367 8 1 	-0.21668 17.44542 0.00000
368 8 1 	-0.05633 16.46227 0.00000
369 8 1 	0.19912 15.77016 0.00000
370 8 1 	-0.72580 16.47316 0.00000
371 8 1 	0.16989 16.32455 0.00000
372 8 1 	-0.14272 17.28744 0.00000
373 8 1 	-1.01778 17.98732 0.00000
374 8 1 	-2.38628 17.59663 0.00000
375 8 1 	-1.85163 17.40941 0.00000
376 8 1 	-2.21304 16.55618 0.00000
377 8 1 	-2.05629 16.72874 0.00000
378 8 1 	-2.08433 17.04425 0.00000
379 8 1 	-1.73253 17.41293 0.00000
380 8 1 	-1.73469 18.32276 0.00000
381 8 1 	-0.91002 18.84074 0.00000
382 8 1 	-1.52589 18.51950 0.00000
383 8 1 	-1.42052 18.33650 0.00000
384 8 1 	-1.55313 18.96259 0.00000
385 8 1 	-0.79590 19.63982 0.00000
386 8 1 	-0.29169 19.55447 0.00000
387 8 1 	-1.62553 20.00315 0.00000
388 8 1 	-1.64243 20.12605 0.00000
389 8 1 	-1.49067 20.53649 0.00000
390 8 1 	-0.86134 20.50185 0.00000
391 8 1 	-1.43078 19.34964 0.00000
392 8 1 	-1.59553 19.56750 0.00000
393 8 1 	-0.75458 19.28227 0.00000
394 8 1 	-2.38381 20.21696 0.00000
395 8 1 	-2.54055 20.19140 0.00000
396 8 1 	-2.24915 20.81646 0.00000
397 8 1 	-2.36975 21.88121 0.00000
398 8 1 	-2.80526 23.07285 0.00000
399 8 1 	-2.08349 21.71239 0.00000
400 8 1 	-1.92234 21.58501 0.00000
401 8 1 	-0.77863 22.25089 0.00000
402 8 1 	-0.65118 22.77085 0.00000
403 8 1 	-1.01724 23.36148 0.00000
404 8 1 	-0.31789 22.56654 0.00000
405 8 1 	-1.03376 22.94849 0.00000
406 8 1 	-1.15186 24.09333 0.00000
407 8 1 	-0.12687 23.91817 0.00000
408 8 1 	0.52516 23.62379 0.00000
409 9 1 	-10.94733 14.63764 0.00000
410 9 1 	-11.80065 14.86230 0.00000
411 9 1 	-11.33206 13.92757 0.00000
412 9 1 	-10.85956 13.53663 0.00000
413 9 1 	-10.87660 13.45380 0.00000
414 9 1 	-11.14724 13.90114 0.00000
415 9 1 	-11.65647 13.05472 0.00000
416 9 1 	-10.71009 14.68565 0.00000
417 9 1 	-12.27695 15.86801 0.00000
418 9 1 	-11.76224 15.95810 0.00000
419 9 1 	-10.86787 15.88815 0.00000
420 9 1 	-10.29192 15.98533 0.00000
421 9 1 	-11.18659 15.11671 0.00000
422 9 1 	-10.76247 15.02898 0.00000
423 9 1 	-9.84659 14.74614 0.00000
424 9 1 	-10.59870 15.55602 0.00000
425 9 1 	-10.14586 15.11740 0.00000
426 9 1 	-10.53552 16.54606 0.00000
427 9 1 	-11.20240 16.63478 0.00000
428 9 1 	-11.25699 16.81002 0.00000
429 9 1 	-11.27802 15.83539 0.00000
430 9 1 	-11.28366 16.61713 0.00000
431 9 1 	-9.70806 17.02299 0.00000
432 9 1 	-9.91767 16.99470 0.00000
433 9 1 	-10.27496 16.18749 0.00000
434 9 1 	-10.87569 15.57013 0.00000
435 9 1 	-11.32916 16.53801 0.00000
436 9 1 	-10.80936 16.92490 0.00000
437 9 1 	-11.49906 16.66738 0.00000
438 9 1 	-11.62236 15.90147 0.00000
439 9 1 	-12.08314 15.62858 0.00000
440 9 1 	-12.23152 15.24711 0.00000
441 9 1 	-12.30482 14.49676 0.00000
442 9 1 	-13.47850 14.42404 0.00000
443 9 1 	-14.40238 14.04610 0.00000
444 9 1 	-14.72898 14.70479 0.00000
445 9 1 	-14.45931 14.67976 0.00000
446 9 1 	-13.72473 14.32308 0.00000
447 9 1 	-12.98493 14.67187 0.00000
448 9 1 	-14.64690 14.09186 0.00000
449 9 1 	-15.59743 13.31386 0.00000
450 9 1 	-16.64061 12.29975 0.00000
451 9 1 	-16.07980 12.02317 0.00000
452 9 1 	-15.46727 13.67065 0.00000
453 9 1 	-15.38690 13.46653 0.00000
454 9 1 	-16.52049 13.64496 0.00000
455 9 1 	-16.01383 12.92520 0.00000
456 9 1 	-15.85564 11.98907 0.00000
457 9 1 	-16.17893 11.04024 0.00000
458 9 1 	-15.59725 9.47410 0.00000
459 9 1 	-15.38308 9.52560 0.00000
460 10 1 	-7.41971 -8.69832 0.00000
461 10 1 	-7.28114 -9.18500 0.00000
462 10 1 	-8.77439 -8.43357 0.00000
463 10 1 	-9.57940 -7.77742 0.00000
464 10 1 	-10.44019 -7.83448 0.00000
465 10 1 	-11.32878 -8.73884 0.00000
466 10 1 	-10.78459 -9.31544 0.00000
467 10 1 	-11.43074 -9.64527 0.00000
468 10 1 	-11.07991 -9.10677 0.00000
469 10 1 	-9.55086 -9.54924 0.00000
470 10 1 	-10.06787 -9.02826 0.00000
471 10 1 	-9.26284 -8.49805 0.00000
472 10 1 	-9.56786 -7.75716 0.00000
473 10 1 	-8.87105 -8.24674 0.00000
474 10 1 	-7.95718 -9.56695 0.00000
475 10 1 	-7.85910 -9.72666 0.00000
476 10 1 	-7.31629 -9.83267 0.00000
477 10 1 	-6.59741 -10.12006 0.00000
478 10 1 	-5.97888 -9.53922 0.00000
479 10 1 	-7.18568 -9.84787 0.00000
480 10 1 	-7.16688 -9.23393 0.00000
481 10 1 	-8.62544 -9.95588 0.00000
482 10 1 	-9.42595 -10.35555 0.00000
483 10 1 	-10.67547 -11.08156 0.00000
484 10 1 	-9.94633 -11.03330 0.00000
485 10 1 	-9.83216 -11.45854 0.00000
486 10 1 	-9.99704 -11.49975 0.00000
487 10 1 	-10.02672 -11.63040 0.00000
488 10 1 	-10.44569 -10.63004 0.00000
489 10 1 	-10.77924 -9.84369 0.00000
490 10 1 	-10.30256 -9.31736 0.00000
491 10 1 	-10.48292 -8.02786 0.00000
492 10 1 	-10.40240 -8.45553 0.00000
493 10 1 	-9.83756 -9.01376 0.00000
494 10 1 	-9.38931 -8.26708 0.00000
495 10 1 	-10.02619 -8.24587 0.00000
496 10 1 	-9.80438 -9.27551 0.00000
497 10 1 	-9.21468 -9.57946 0.00000
498 10 1 	-8.74146 -9.29281 0.00000
499 10 1 	-9.70652 -9.32743 0.00000
500 10 1 	-9.20989 -9.33259 0.00000
501 10 1 	-8.80438 -9.26169 0.00000
502 10 1 	-8.28591 -8.47486 0.00000
503 10 1 	-8.25480 -7.01927 0.00000
504 10 1 	-8.13244 -7.92944 0.00000
505 10 1 	-8.23886 -7.73857 0.00000
506 10 1 	-7.76903 -7.93881 0.00000
507 10 1 	-8.65163 -7.76200 0.00000
508 10 1 	-8.55699 -7.96603 0.00000
509 10 1 	-8.76945 -7.27007 0.00000
510 10 1 	-7.80055 -6.70096 0.00000
511 11 1 	-8.11783 -0.61386 0.00000
512 11 1 	-8.70394 -0.33608 0.00000
513 11 1 	-9.14231 -0.49691 0.00000
514 11 1 	-10.15685 -0.68158 0.00000
515 11 1 	-9.19373 -1.20727 0.00000
516 11 1 	-9.42216 -1.54417 0.00000
517 11 1 	-10.43398 -1.14680 0.00000
518 11 1 	-11.32691 0.86704 0.00000
519 11 1 	-11.20271 1.47947 0.00000
520 11 1 	-10.17555 2.09100 0.00000
521 11 1 	-9.68680 1.33484 0.00000
522 11 1 	-10.11230 2.58342 0.00000
523 11 1 	-9.15032 2.62175 0.00000
524 11 1 	-9.08837 2.34510 0.00000
525 11 1 	-8.55080 2.63541 0.00000
526 11 1 	-9.18338 4.56057 0.00000
527 11 1 	-8.26806 3.82423 0.00000
528 11 1 	-9.18589 3.75182 0.00000
529 11 1 	-10.11985 3.93348 0.00000
530 11 1 	-10.95318 3.91067 0.00000
531 11 1 	-11.97434 3.90937 0.00000
532 11 1 	-12.00585 4.13671 0.00000
533 11 1 	-12.30129 4.23315 0.00000
534 11 1 	-12.68660 3.58813 0.00000
535 11 1 	-13.73785 4.27476 0.00000
536 11 1 	-14.55888 4.02329 0.00000
537 11 1 	-14.22518 3.87019 0.00000
538 11 1 	-14.43090 3.12555 0.00000
539 11 1 	-15.13326 3.43030 0.00000
540 11 1 	-15.41237 2.35511 0.00000
541 11 1 	-15.13155 2.36746 0.00000
542 11 1 	-15.88407 2.62552 0.00000
543 11 1 	-15.60847 3.56596 0.00000
544 11 1 	-16.84352 3.02253 0.00000
545 11 1 	-16.73321 2.70871 0.00000
546 11 1 	-16.02872 1.93254 0.00000
547 11 1 	-16.05464 0.51788 0.00000
548 11 1 	-15.82321 1.33623 0.00000
549 11 1 	-15.67539 2.49934 0.00000
550 11 1 	-15.89366 3.08232 0.00000
551 11 1 	-15.57621 3.84259 0.00000
552 11 1 	-15.76191 4.29026 0.00000
553 11 1 	-14.90850 4.89063 0.00000
554 11 1 	-14.95269 4.55603 0.00000
555 11 1 	-15.22927 4.76509 0.00000
556 11 1 	-15.36321 5.84080 0.00000
557 11 1 	-15.79494 6.14518 0.00000
558 11 1 	-15.95857 6.85109 0.00000
559 11 1 	-15.27818 6.17437 0.00000
560 11 1 	-14.73598 7.37570 0.00000
561 11 1 	-15.36271 8.40046 0.00000
562 12 1 	16.47346 -16.11943 0.00000
563 12 1 	16.48030 -16.81879 0.00000
564 12 1 	16.42027 -16.43512 0.00000
565 12 1 	17.28952 -16.89401 0.00000
566 12 1 	18.14215 -16.48422 0.00000
567 12 1 	18.50277 -16.84721 0.00000
568 12 1 	18.33448 -16.44825 0.00000
569 12 1 	17.13866 -16.22277 0.00000
570 12 1 	16.48714 -15.96515 0.00000
571 12 1 	17.74364 -16.47584 0.00000
572 12 1 	19.69934 -17.12020 0.00000
573 12 1 	20.24848 -17.61268 0.00000
574 12 1 	20.00336 -17.98688 0.00000
575 12 1 	18.89122 -17.56124 0.00000
576 12 1 	18.22996 -17.96888 0.00000
577 12 1 	18.16744 -16.92726 0.00000
578 12 1 	18.32851 -16.87688 0.00000
579 12 1 	19.11058 -17.10378 0.00000
580 12 1 	18.36300 -17.80677 0.00000
581 12 1 	18.52615 -17.48260 0.00000
582 12 1 	18.89339 -17.52824 0.00000
583 12 1 	19.27732 -17.39368 0.00000
584 12 1 	18.71294 -16.49388 0.00000
585 12 1 	19.33764 -15.42892 0.00000
586 12 1 	18.66646 -14.87188 0.00000
587 12 1 	18.68204 -16.05332 0.00000
588 12 1 	18.48588 -15.73265 0.00000
589 12 1 	19.51949 -15.20791 0.00000
590 12 1 	18.55324 -15.80208 0.00000
591 12 1 	19.28373 -15.25848 0.00000
592 12 1 	20.12776 -14.30026 0.00000
593 12 1 	20.59353 -15.00946 0.00000
594 12 1 	19.70936 -15.33843 0.00000
595 12 1 	19.06331 -14.58184 0.00000
596 12 1 	19.18849 -15.86473 0.00000
597 12 1 	20.81339 -16.39301 0.00000
598 12 1 	21.26770 -16.14565 0.00000
599 12 1 	20.91415 -16.23763 0.00000
600 12 1 	22.00295 -14.51546 0.00000
601 12 1 	23.23763 -14.16010 0.00000
602 12 1 	22.82588 -14.58324 0.00000
603 12 1 	22.97277 -14.95517 0.00000
604 12 1 	23.07548 -15.19524 0.00000
605 12 1 	22.08722 -13.57917 0.00000
606 12 1 	20.90730 -14.08624 0.00000
607 12 1 	20.88894 -14.17377 0.00000
608 12 1 	20.90597 -13.94794 0.00000
609 12 1 	20.73086 -13.74196 0.00000
610 12 1 	21.57682 -13.94474 0.00000
611 12 1 	22.57484 -12.90729 0.00000
612 12 1 	22.91669 -13.36574 0.00000
613 13 1 	-2.59018 14.12450 0.00000
614 13 1 	-2.80405 15.03676 0.00000
615 13 1 	-2.87299 15.93770 0.00000
616 13 1 	-2.76503 16.13928 0.00000
617 13 1 	-2.11653 15.84798 0.00000
618 13 1 	-2.36693 15.64947 0.00000
619 13 1 	-0.98630 14.94527 0.00000
620 13 1 	-0.99407 15.30512 0.00000
621 13 1 	-1.25549 15.27524 0.00000
622 13 1 	-1.49264 14.69409 0.00000
623 13 1 	-2.18610 15.92366 0.00000
624 13 1 	-2.51965 18.11971 0.00000
625 13 1 	-1.97451 18.54451 0.00000
626 13 1 	-1.67042 18.88720 0.00000
627 13 1 	-1.89608 19.32198 0.00000
628 13 1 	-2.07565 19.80363 0.00000
629 13 1 	-1.53435 20.49656 0.00000
630 13 1 	-2.83729 21.02025 0.00000
631 13 1 	-2.32965 21.01966 0.00000
632 13 1 	-2.79405 21.07401 0.00000
633 13 1 	-0.91327 20.53083 0.00000
634 13 1 	-1.41643 19.57483 0.00000
635 13 1 	-1.09665 19.23113 0.00000
636 13 1 	-2.53715 18.56593 0.00000
637 13 1 	-2.95841 19.16663 0.00000
638 13 1 	-1.40084 19.03465 0.00000
639 13 1 	0.22578 18.31056 0.00000
640 13 1 	0.57691 17.85430 0.00000
641 13 1 	0.03044 17.23278 0.00000
642 13 1 	1.87058 17.45667 0.00000
643 13 1 	1.33941 17.58727 0.00000
644 13 1 	1.84190 17.96797 0.00000
645 13 1 	1.52329 17.36788 0.00000
646 13 1 	2.02175 17.40241 0.00000
647 13 1 	0.57430 17.25233 0.00000
648 13 1 	0.82317 16.78411 0.00000
649 13 1 	-0.29027 18.12080 0.00000
650 13 1 	0.52787 18.30941 0.00000
651 13 1 	0.11628 17.63354 0.00000
652 13 1 	-0.14259 17.78351 0.00000
653 13 1 	-1.23355 17.27192 0.00000
654 13 1 	-1.15224 17.10129 0.00000
655 13 1 	-2.27023 17.44038 0.00000
656 13 1 	-2.46132 17.76198 0.00000
657 13 1 	-3.31926 16.59151 0.00000
658 13 1 	-4.42909 16.82582 0.00000
659 13 1 	-3.80203 16.21867 0.00000
660 13 1 	-3.26099 16.39121 0.00000
661 13 1 	-3.26288 17.89833 0.00000
662 13 1 	-4.82305 17.19173 0.00000
663 13 1 	-3.78210 17.52239 0.00000
664 14 1 	-7.95740 -19.56883 0.00000
665 14 1 	-7.79229 -20.75168 0.00000
666 14 1 	-8.78576 -20.37271 0.00000
667 14 1 	-9.03700 -19.98426 0.00000
668 14 1 	-6.87049 -21.51941 0.00000
669 14 1 	-6.47195 -22.35222 0.00000
670 14 1 	-6.12580 -22.06922 0.00000
671 14 1 	-5.49911 -21.93570 0.00000
672 14 1 	-4.71048 -21.55546 0.00000
673 14 1 	-4.63759 -21.51927 0.00000
674 14 1 	-5.36248 -20.53454 0.00000
675 14 1 	-5.06024 -20.78932 0.00000
676 14 1 	-5.03381 -19.48208 0.00000
677 14 1 	-4.08594 -19.85674 0.00000
678 14 1 	-4.49111 -20.20605 0.00000
679 14 1 	-4.24472 -20.00013 0.00000
680 14 1 	-3.78461 -19.74157 0.00000
681 14 1 	-3.22413 -19.90149 0.00000
682 14 1 	-4.50469 -19.64902 0.00000
683 14 1 	-4.05505 -21.14995 0.00000
684 14 1 	-4.36619 -20.90214 0.00000
685 14 1 	-5.16825 -21.24373 0.00000
686 14 1 	-4.67953 -21.11340 0.00000
687 14 1 	-4.59418 -21.63491 0.00000
688 14 1 	-3.42281 -21.89025 0.00000
689 14 1 	-2.67769 -22.48696 0.00000
690 14 1 	-1.31668 -22.92629 0.00000
691 14 1 	-2.14143 -22.31359 0.00000
692 14 1 	-1.28216 -22.19779 0.00000
693 14 1 	0.48576 -23.02931 0.00000
694 14 1 	0.72431 -23.66422 0.00000
695 14 1 	0.76518 -22.96878 0.00000
696 14 1 	1.32694 -22.34037 0.00000
697 14 1 	1.70530 -22.45492 0.00000
698 14 1 	1.38574 -21.82987 0.00000
699 14 1 	1.22384 -23.48293 0.00000
700 14 1 	-0.16264 -23.78415 0.00000
701 14 1 	0.53165 -23.93613 0.00000
702 14 1 	0.43396 -24.27858 0.00000
703 14 1 	0.12723 -23.03035 0.00000
704 14 1 	0.07743 -22.56737 0.00000
705 14 1 	-0.49003 -23.30863 0.00000
706 14 1 	-2.00933 -23.86902 0.00000
707 14 1 	-1.11301 -24.02308 0.00000
708 14 1 	0.66901 -24.18817 0.00000
709 14 1 	0.63403 -25.54943 0.00000
710 14 1 	0.46367 -24.57593 0.00000
711 14 1 	0.24653 -24.65821 0.00000
712 14 1 	1.17270 -24.11562 0.00000
713 14 1 	1.32101 -24.36389 0.00000
714 14 1 	1.89724 -23.85758 0.00000
715 15 1 	9.65889 -18.99640 0.00000
716 15 1 	9.76700 -18.39264 0.00000
717 15 1 	9.06926 -17.50225 0.00000
718 15 1 	9.93982 -16.31613 0.00000
719 15 1 	8.20042 -16.30580 0.00000
720 15 1 	9.07175 -17.28908 0.00000
721 15 1 	9.89717 -18.25441 0.00000
722 15 1 	10.70931 -18.13214 0.00000
723 15 1 	11.59738 -19.17143 0.00000
724 15 1 	12.98075 -18.82075 0.00000
725 15 1 	12.37927 -18.20140 0.00000
726 15 1 	13.14687 -17.86809 0.00000
727 15 1 	12.79398 -17.41058 0.00000
728 15 1 	13.66823 -16.76799 0.00000
729 15 1 	13.65527 -16.32993 0.00000
730 15 1 	13.66276 -16.44147 0.00000
731 15 1 	13.84434 -16.75474 0.00000
732 15 1 	13.47836 -16.76056 0.00000
733 15 1 	12.51761 -15.77914 0.00000
734 15 1 	12.30488 -15.36850 0.00000
735 15 1 	12.34154 -15.14606 0.00000
736 15 1 	13.98716 -14.21512 0.00000
737 15 1 	14.80568 -14.72434 0.00000
738 15 1 	14.44817 -14.81947 0.00000
739 15 1 	14.27909 -15.37031 0.00000
740 15 1 	13.22739 -14.56506 0.00000
741 15 1 	13.90104 -13.79040 0.00000
742 15 1 	14.00886 -13.57947 0.00000
743 15 1 	15.09963 -12.76307 0.00000
744 15 1 	15.78901 -13.21982 0.00000
745 15 1 	15.05174 -12.83391 0.00000
746 15 1 	14.87596 -14.97270 0.00000
747 15 1 	14.64591 -14.51372 0.00000
748 15 1 	14.75685 -13.53309 0.00000
749 15 1 	14.12262 -13.01787 0.00000
750 15 1 	15.61197 -12.23838 0.00000
751 15 1 	14.93283 -11.84860 0.00000
752 15 1 	14.68177 -12.57335 0.00000
753 15 1 	14.43712 -12.27995 0.00000
754 15 1 	13.97096 -11.92863 0.00000
755 15 1 	12.80849 -13.29058 0.00000
756 15 1 	13.78830 -13.24912 0.00000
757 15 1 	13.83247 -12.89581 0.00000
758 15 1 	12.59625 -13.60159 0.00000
759 15 1 	12.95812 -13.58619 0.00000
760 15 1 	12.87559 -13.51276 0.00000
761 15 1 	12.87002 -13.01566 0.00000
762 15 1 	12.44957 -12.48735 0.00000
763 15 1 	11.45895 -14.09149 0.00000
764 15 1 	10.69824 -15.23038 0.00000
765 15 1 	10.92543 -16.05584 0.00000
766 16 1 	-3.92307 7.73053 0.00000
767 16 1 	-3.53478 7.83687 0.00000
768 16 1 	-3.49252 7.89192 0.00000
769 16 1 	-4.13349 7.79234 0.00000
770 16 1 	-5.31346 7.42124 0.00000
771 16 1 	-6.04084 7.16469 0.00000
772 16 1 	-5.97813 7.86376 0.00000
773 16 1 	-6.63137 7.18452 0.00000
774 16 1 	-5.34249 7.04102 0.00000
775 16 1 	-5.66315 7.83032 0.00000
776 16 1 	-4.14654 7.33848 0.00000
777 16 1 	-3.31432 7.24188 0.00000
778 16 1 	-4.57539 7.87845 0.00000
779 16 1 	-3.11483 7.40971 0.00000
780 16 1 	-3.91559 8.01723 0.00000
781 16 1 	-6.26853 7.52013 0.00000
782 16 1 	-7.75300 7.04131 0.00000
783 16 1 	-6.95618 6.43142 0.00000
784 16 1 	-6.71210 5.50699 0.00000
785 16 1 	-6.52073 6.92747 0.00000
786 16 1 	-6.83416 7.18085 0.00000
787 16 1 	-5.48397 7.59763 0.00000
788 16 1 	-6.32345 8.27008 0.00000
789 16 1 	-6.53966 7.79603 0.00000
790 16 1 	-5.91571 7.72013 0.00000
791 16 1 	-6.10691 7.96135 0.00000
792 16 1 	-5.07197 8.76466 0.00000
793 16 1 	-4.55487 9.04249 0.00000
794 16 1 	-4.71328 9.46940 0.00000
795 16 1 	-5.77021 9.28974 0.00000
796 16 1 	-5.46672 9.32865 0.00000
797 16 1 	-4.45202 8.43060 0.00000
798 16 1 	-5.33231 9.55326 0.00000
799 16 1 	-5.27537 8.65728 0.00000
800 16 1 	-5.12711 9.55186 0.00000
801 16 1 	-5.03432 9.72738 0.00000
802 16 1 	-4.67642 9.59525 0.00000
803 16 1 	-4.52152 9.63062 0.00000
804 16 1 	-4.06361 9.93991 0.00000
805 16 1 	-3.26964 10.18038 0.00000
806 16 1 	-3.37834 11.59821 0.00000
807 16 1 	-3.06006 10.79731 0.00000
808 16 1 	-2.06180 11.31487 0.00000
809 16 1 	-1.71070 11.95430 0.00000
810 16 1 	-1.47189 12.28950 0.00000
811 16 1 	-1.62871 14.13430 0.00000
812 16 1 	-2.08957 15.12725 0.00000
813 16 1 	-2.34951 13.74344 0.00000
814 16 1 	-2.90396 13.23328 0.00000
815 16 1 	-3.97706 11.94699 0.00000
816 16 1 	-3.93215 11.98175 0.00000
817 17 1 	-7.80384 -9.12357 0.00000
818 17 1 	-7.44082 -7.58571 0.00000
819 17 1 	-6.68887 -7.23930 0.00000
820 17 1 	-5.10813 -7.36955 0.00000
821 17 1 	-5.27422 -6.95397 0.00000
822 17 1 	-2.53265 -7.59973 0.00000
823 17 1 	-2.56522 -7.33727 0.00000
824 17 1 	-2.56924 -7.23173 0.00000
825 17 1 	-2.44121 -6.81259 0.00000
826 17 1 	-2.05032 -6.49707 0.00000
827 17 1 	-1.75447 -5.15474 0.00000
828 17 1 	-2.24598 -5.55888 0.00000
829 17 1 	-2.08250 -6.27505 0.00000
830 17 1 	-2.93040 -5.88830 0.00000
831 17 1 	-1.94813 -6.57960 0.00000
832 17 1 	-1.68086 -5.89041 0.00000
833 17 1 	-2.42545 -5.54501 0.00000
834 17 1 	-1.56982 -5.78701 0.00000
835 17 1 	-0.44311 -4.62930 0.00000
836 17 1 	-0.04048 -5.26002 0.00000
837 17 1 	0.54415 -5.67134 0.00000
838 17 1 	0.01269 -6.11830 0.00000
839 17 1 	-0.22561 -5.77360 0.00000
840 17 1 	0.80745 -6.33199 0.00000
841 17 1 	0.57012 -5.90756 0.00000
842 17 1 	1.83347 -6.88453 0.00000