LAMMPS Description

1100 atoms
1000 bonds

3 atom types
1 bond types

-20 20 xlo xhi
-20 20 ylo yhi
-20 20 zlo zhi

Masses

1 1
2 1
3 1

Atoms # id mol type xu yu zu

1 1 1 	7.07421 -16.32338 0.00000
2 1 1 	6.38741 -15.74540 0.00000
3 1 1 	6.88665 -15.34788 0.00000
4 1 1 	6.41291 -15.66047 0.00000
5 1 1 	7.11633 -14.73090 0.00000
6 1 1 	7.35593 -12.92577 0.00000
7 1 1 	6.80498 -13.29551 0.00000
8 1 1 	6.85765 -13.45802 0.00000
9 1 1 	5.95354 -14.05067 0.00000
10 1 1 	6.20947 -13.97828 0.00000
11 1 1 	5.55929 -13.82088 0.00000
12 2 1 	2.92471 14.13534 0.00000
13 2 1 	1.94972 14.15403 0.00000
14 2 1 	2.04702 15.58053 0.00000
15 2 1 	1.12813 13.60385 0.00000
16 2 1 	2.00342 13.10512 0.00000
17 2 1 	0.30990 13.26887 0.00000
18 2 1 	-0.07971 13.52182 0.00000
19 2 1 	0.46650 14.93194 0.00000
20 2 1 	1.40801 14.85711 0.00000
21 2 1 	0.45211 15.99965 0.00000
22 2 1 	0.00614 16.58680 0.00000
23 3 1 	-1.58242 0.11679 0.00000
24 3 1 	-0.92228 0.15186 0.00000
25 3 1 	-0.57143 -0.86119 0.00000
26 3 1 	-0.93626 -1.03139 0.00000
27 3 1 	-0.50994 -2.02140 0.00000
28 3 1 	-0.87020 -0.27054 0.00000
29 3 1 	-0.72487 0.81309 0.00000
30 3 1 	-0.80699 1.42828 0.00000
31 3 1 	-0.98228 1.04295 0.00000
32 3 1 	-1.33194 0.86325 0.00000
33 3 1 	-0.63198 0.45222 0.00000
34 4 1 	8.40718 15.61113 0.00000
35 4 1 	7.93331 15.73452 0.00000
36 4 1 	7.64245 16.49472 0.00000
37 4 1 	6.74339 18.23989 0.00000
38 4 1 	5.16796 20.54496 0.00000
39 4 1 	5.84688 20.47900 0.00000
40 4 1 	5.42311 20.35191 0.00000
41 4 1 	5.73532 20.25524 0.00000
42 4 1 	3.85103 20.82091 0.00000
43 4 1 	4.53369 21.16611 0.00000
44 4 1 	4.77340 19.27564 0.00000
45 5 1 	6.37235 6.00978 0.00000
46 5 1 	5.90368 4.89026 0.00000
47 5 1 	5.96768 5.13205 0.00000
48 5 1 	5.14448 3.91263 0.00000
49 5 1 	4.41576 4.11726 0.00000
50 5 1 	5.45200 3.73076 0.00000
51 5 1 	4.84882 3.76704 0.00000
52 5 1 	5.02549 3.01797 0.00000
53 5 1 	4.61847 2.78755 0.00000
54 5 1 	4.64334 1.87125 0.00000
55 5 1 	5.80421 0.47381 0.00000
56 6 1 	-12.90871 -4.89715 0.00000
57 6 1 	-12.69197 -5.09555 0.00000
58 6 1 	-13.18006 -5.83578 0.00000
59 6 1 	-13.56946 -5.60923 0.00000
60 6 1 	-14.89848 -6.79504 0.00000
61 6 1 	-14.45714 -6.36317 0.00000
62 6 1 	-15.71612 -7.01210 0.00000
63 6 1 	-16.32996 -7.10308 0.00000
64 6 1 	-16.47278 -7.83973 0.00000
65 6 1 	-18.00539 -8.16448 0.00000
66 6 1 	-16.22014 -8.42622 0.00000
67 7 1 	-14.85908 1.97380 0.00000
68 7 1 	-14.80192 0.67657 0.00000
69 7 1 	-14.24560 1.03579 0.00000
70 7 1 	-13.15672 1.25437 0.00000
71 7 1 	-13.57009 1.74759 0.00000
72 7 1 	-14.69871 1.74304 0.00000
73 7 1 	-15.29965 1.84830 0.00000
74 7 1 	-15.07397 2.45191 0.00000
75 7 1 	-16.33515 2.51648 0.00000
76 7 1 	-16.89727 2.19575 0.00000
77 7 1 	-15.59735 2.14056 0.00000
78 8 1 	-1.05926 11.14059 0.00000
79 8 1 	-0.44528 11.56898 0.00000
80 8 1 	-1.04839 11.93061 0.00000
81 8 1 	-0.54779 12.64656 0.00000
82 8 1 	-0.69002 12.39491 0.00000
83 8 1 	-0.73907 12.46845 0.00000
84 8 1 	-0.08580 12.19447 0.00000
85 8 1 	0.77957 11.89919 0.00000
86 8 1 	1.46105 11.22885 0.00000
87 8 1 	2.00246 10.86912 0.00000
88 8 1 	1.96196 9.88407 0.00000
89 9 1 	11.12797 14.95329 0.00000
90 9 1 	12.43080 15.27372 0.00000
91 9 1 	13.04946 15.36715 0.00000
92 9 1 	12.33256 14.94142 0.00000
93 9 1 	12.52664 15.02740 0.00000
94 9 1 	11.99900 15.67723 0.00000
95 9 1 	12.20368 16.12261 0.00000
96 9 1 	12.64777 16.48157 0.00000
97 9 1 	11.04767 16.29572 0.00000
98 9 1 	11.28218 17.09988 0.00000
99 9 1 	11.27855 17.49552 0.00000
100 10 1 	-17.73263 -16.50344 0.00000
101 10 1 	-18.64396 -16.02187 0.00000
102 10 1 	-18.63799 -15.83776 0.00000
103 10 1 	-18.76498 -15.79881 0.00000
104 10 1 	-17.63923 -15.29921 0.00000
105 10 1 	-18.42698 -14.98621 0.00000
106 10 1 	-18.34603 -14.43400 0.00000
107 10 1 	-17.54838 -14.31933 0.00000
108 10 1 	-18.83929 -15.12223 0.00000
109 10 1 	-18.43119 -13.73102 0.00000
110 10 1 	-18.09176 -12.97903 0.00000
111 11 1 	-14.38482 18.51595 0.00000
112 11 1 	-14.03317 18.58054 0.00000
113 11 1 	-14.07386 19.33868 0.00000
114 11 1 	-13.70100 20.08622 0.00000
115 11 1 	-15.07462 20.43965 0.00000
116 11 1 	-14.34956 19.61070 0.00000
117 11 1 	-14.49003 18.87297 0.00000
118 11 1 	-14.03504 17.77093 0.00000
119 11 1 	-13.78811 17.72361 0.00000
120 11 1 	-13.99696 19.32210 0.00000
121 11 1 	-14.32716 18.55474 0.00000
122 12 1 	-9.79273 7.69128 0.00000
123 12 1 	-9.18410 8.16682 0.00000
124 12 1 	-8.23669 7.56785 0.00000
125 12 1 	-8.40086 6.55945 0.00000
126 12 1 	-8.14987 7.07121 0.00000
127 12 1 	-7.75052 7.86348 0.00000
128 12 1 	-6.31251 7.59283 0.00000
129 12 1 	-6.65783 8.11861 0.00000
130 12 1 	-6.94626 7.83906 0.00000
131 12 1 	-6.36819 7.09291 0.00000
132 12 1 	-7.72665 6.46661 0.00000
133 13 1 	-8.75597 -3.02234 0.00000
134 13 1 	-8.48547 -4.05035 0.00000
135 13 1 	-8.38691 -3.89244 0.00000
136 13 1 	-9.75279 -4.81828 0.00000
137 13 1 	-9.39287 -3.88305 0.00000
138 13 1 	-9.03651 -2.45183 0.00000
139 13 1 	-8.17600 -1.71186 0.00000
140 13 1 	-7.94972 -0.82257 0.00000
141 13 1 	-7.89204 -0.68847 0.00000
142 13 1 	-9.55182 0.12102 0.00000
143 13 1 	-10.06811 -0.01350 0.00000
144 14 1 	17.59957 8.98427 0.00000
145 14 1 	18.60614 8.26441 0.00000
146 14 1 	16.83378 7.01066 0.00000
147 14 1 	16.82711 8.39085 0.00000
148 14 1 	16.46226 8.59348 0.00000
149 14 1 	17.60448 9.55852 0.00000
150 14 1 	16.85068 9.36722 0.00000
151 14 1 	16.38030 9.44993 0.00000
152 14 1 	16.36846 10.05955 0.00000
153 14 1 	17.39052 8.97286 0.00000
154 14 1 	17.72253 9.67525 0.00000
155 15 1 	-15.42033 11.92073 0.00000
156 15 1 	-16.21363 11.60735 0.00000
157 15 1 	-15.26927 11.75289 0.00000
158 15 1 	-15.46780 11.15296 0.00000
159 15 1 	-15.38163 11.43713 0.00000
160 15 1 	-16.34122 12.87835 0.00000
161 15 1 	-16.40497 11.78512 0.00000
162 15 1 	-16.97925 10.99424 0.00000
163 15 1 	-17.65755 9.89332 0.00000
164 15 1 	-18.32360 11.73768 0.00000
165 15 1 	-18.65395 10.88019 0.00000
166 16 1 	-5.47923 -13.45138 0.00000
167 16 1 	-4.66400 -13.00479 0.00000
168 16 1 	-4.38412 -13.35392 0.00000
169 16 1 	-4.05381 -14.10740 0.00000
170 16 1 	-3.82815 -14.77873 0.00000
171 16 1 	-3.13308 -15.02440 0.00000
172 16 1 	-4.92425 -14.97084 0.00000
173 16 1 	-5.67795 -15.15145 0.00000
174 16 1 	-5.24235 -14.88224 0.00000
175 16 1 	-4.47492 -15.60417 0.00000
176 16 1 	-4.36100 -15.68710 0.00000
177 17 1 	10.22790 -7.25644 0.00000
178 17 1 	10.92527 -6.54905 0.00000
179 17 1 	11.25976 -7.19646 0.00000
180 17 1 	12.26099 -7.46133 0.00000
181 17 1 	11.90861 -7.83569 0.00000
182 17 1 	11.29367 -6.65889 0.00000
183 17 1 	11.00905 -6.48612 0.00000
184 17 1 	11.00636 -5.72333 0.00000
185 17 1 	11.89353 -4.81904 0.00000
186 17 1 	11.25947 -4.89811 0.00000
187 17 1 	12.14609 -4.11464 0.00000
188 18 1 	18.73987 7.21814 0.00000
189 18 1 	17.89037 7.09984 0.00000
190 18 1 	17.90399 7.02639 0.00000
191 18 1 	16.71143 7.06738 0.00000
192 18 1 	17.06329 8.10268 0.00000
193 18 1 	17.26004 7.80931 0.00000
194 18 1 	17.07556 8.34782 0.00000
195 18 1 	15.90497 7.70024 0.00000
196 18 1 	16.02283 7.48264 0.00000
197 18 1 	15.37748 7.74679 0.00000
198 18 1 	14.42507 6.67495 0.00000
199 19 1 	19.93345 -18.50973 0.00000
200 19 1 	20.54656 -19.59341 0.00000
201 19 1 	20.68436 -19.76982 0.00000
202 19 1 	20.28149 -19.84346 0.00000
203 19 1 	19.44303 -19.91263 0.00000
204 19 1 	19.16900 -20.04117 0.00000
205 19 1 	18.45955 -20.76935 0.00000
206 19 1 	18.46216 -20.82133 0.00000
207 19 1 	19.48748 -18.92029 0.00000
208 19 1 	20.09075 -20.63823 0.00000
209 19 1 	21.38177 -21.64356 0.00000
210 20 1 	12.54039 -4.87948 0.00000
211 20 1 	13.43458 -4.73364 0.00000
212 20 1 	14.96747 -5.30859 0.00000
213 20 1 	14.43201 -6.17844 0.00000
214 20 1 	13.87314 -6.11816 0.00000
215 20 1 	13.60781 -6.73812 0.00000
216 20 1 	14.00937 -6.85331 0.00000
217 20 1 	13.55974 -5.73369 0.00000
218 20 1 	14.83339 -6.26665 0.00000
219 20 1 	14.31348 -7.20119 0.00000
220 20 1 	15.78092 -6.82353 0.00000
221 21 1 	15.47556 15.50369 0.00000
222 21 1 	15.21084 15.64758 0.00000
223 21 1 	15.24000 15.96730 0.00000
224 21 1 	15.48342 15.86403 0.00000
225 21 1 	15.85209 16.12692 0.00000
226 21 1 	17.21633 15.62021 0.00000
227 21 1 	16.87768 16.19960 0.00000
228 21 1 	15.99645 15.84434 0.00000
229 21 1 	16.55593 14.91603 0.00000
230 21 1 	17.08187 15.57786 0.00000
231 21 1 	17.00261 14.43775 0.00000
232 22 1 	11.01787 18.98701 0.00000
233 22 1 	10.76738 19.11247 0.00000
234 22 1 	10.30982 18.36354 0.00000
235 22 1 	10.58393 17.99762 0.00000
236 22 1 	10.33222 18.53688 0.00000
237 22 1 	10.16969 18.47242 0.00000
238 22 1 	10.49118 19.17932 0.00000
239 22 1 	11.35086 20.04196 0.00000
240 22 1 	11.17930 19.83528 0.00000
241 22 1 	11.67033 20.13643 0.00000
242 22 1 	11.72337 20.75642 0.00000
243 23 1 	-14.33919 0.59180 0.00000
244 23 1 	-13.55010 0.79070 0.00000
245 23 1 	-13.73494 1.14684 0.00000
246 23 1 	-13.32566 0.08157 0.00000
247 23 1 	-11.83478 0.96645 0.00000
248 23 1 	-12.11737 0.66432 0.00000
249 23 1 	-12.35027 -0.35068 0.00000
250 23 1 	-12.38059 -0.51905 0.00000
251 23 1 	-12.63871 -0.49610 0.00000
252 23 1 	-12.57507 -1.22057 0.00000
253 23 1 	-11.88401 -0.70002 0.00000
254 24 1 	-1.99791 4.11487 0.00000
255 24 1 	-1.41993 4.43167 0.00000
256 24 1 	-2.07081 3.42457 0.00000
257 24 1 	-1.52608 3.18325 0.00000
258 24 1 	-1.17201 2.20978 0.00000
259 24 1 	-0.65362 2.55144 0.00000
260 24 1 	-0.70346 3.02700 0.00000
261 24 1 	-0.91109 2.64021 0.00000
262 24 1 	-0.32646 1.56687 0.00000
263 24 1 	0.04272 1.14828 0.00000
264 24 1 	-0.71322 0.02944 0.00000
265 25 1 	-8.67170 16.87526 0.00000
266 25 1 	-9.97609 16.82912 0.00000
267 25 1 	-10.27008 16.08517 0.00000
268 25 1 	-8.28196 17.18177 0.00000
269 25 1 	-8.29954 16.72532 0.00000
270 25 1 	-8.51021 17.41238 0.00000
271 25 1 	-8.81621 16.85092 0.00000
272 25 1 	-8.84508 17.49291 0.00000
273 25 1 	-8.93212 17.89942 0.00000
274 25 1 	-8.33253 17.41862 0.00000
275 25 1 	-7.57856 16.92313 0.00000
276 26 1 	-6.62269 6.07203 0.00000
277 26 1 	-6.98211 4.83132 0.00000
278 26 1 	-5.60758 4.32408 0.00000
279 26 1 	-5.21180 4.01457 0.00000
280 26 1 	-5.70675 2.83875 0.00000
281 26 1 	-7.12096 3.68859 0.00000
282 26 1 	-7.16739 2.00287 0.00000
283 26 1 	-7.28086 2.66846 0.00000
284 26 1 	-7.37801 0.79839 0.00000
285 26 1 	-6.95682 -0.05146 0.00000
286 26 1 	-6.52488 0.54217 0.00000
287 27 1 	-16.32721 -3.58046 0.00000
288 27 1 	-16.61887 -2.63613 0.00000
289 27 1 	-15.24235 -2.65921 0.00000
290 27 1 	-16.91812 -3.93584 0.00000
291 27 1 	-17.81975 -5.56342 0.00000
292 27 1 	-18.07649 -6.05018 0.00000
293 27 1 	-17.63745 -5.76644 0.00000
294 27 1 	-17.53954 -5.62271 0.00000
295 27 1 	-17.09767 -4.81156 0.00000
296 27 1 	-17.19851 -4.52071 0.00000
297 27 1 	-17.55533 -3.59963 0.00000
298 28 1 	-11.61351 -6.17920 0.00000
299 28 1 	-10.38783 -5.87649 0.00000
300 28 1 	-10.42164 -7.57855 0.00000
301 28 1 	-10.60432 -6.84459 0.00000
302 28 1 	-10.40210 -5.91459 0.00000
303 28 1 	-9.88214 -5.57566 0.00000
304 28 1 	-9.89384 -6.66711 0.00000
305 28 1 	-10.33602 -5.48166 0.00000
306 28 1 	-9.97139 -5.14337 0.00000
307 28 1 	-10.40492 -4.56231 0.00000
308 28 1 	-10.11664 -4.32151 0.00000
309 29 1 	0.41295 -0.26753 0.00000
310 29 1 	0.88285 -0.23255 0.00000
311 29 1 	0.84313 -0.73028 0.00000
312 29 1 	1.24932 0.55408 0.00000
313 29 1 	0.53024 -0.16758 0.00000
314 29 1 	0.75875 0.12969 0.00000
315 29 1 	1.25329 0.51506 0.00000
316 29 1 	1.13586 -0.14110 0.00000
317 29 1 	2.39123 0.02281 0.00000
318 29 1 	2.14284 1.40449 0.00000
319 29 1 	2.48461 0.02943 0.00000
320 30 1 	17.80856 -9.28778 0.00000
321 30 1 	17.77309 -9.42049 0.00000
322 30 1 	18.27531 -8.93958 0.00000
323 30 1 	19.15364 -9.09059 0.00000
324 30 1 	19.06571 -9.38982 0.00000
325 30 1 	19.81229 -10.58855 0.00000
326 30 1 	20.68805 -10.09461 0.00000
327 30 1 	20.42773 -10.96529 0.00000
328 30 1 	20.28882 -10.34694 0.00000
329 30 1 	20.22080 -10.57856 0.00000
330 30 1 	20.00669 -10.89789 0.00000
331 31 1 	-8.66170 -11.13532 0.00000
332 31 1 	-8.38166 -10.32764 0.00000
333 31 1 	-9.33313 -11.53511 0.00000
334 31 1 	-11.60177 -11.96049 0.00000
335 31 1 	-11.36946 -10.95795 0.00000
336 31 1 	-11.89438 -11.20463 0.00000
337 31 1 	-10.41137 -11.16377 0.00000
338 31 1 	-10.53313 -10.55243 0.00000
339 31 1 	-11.11110 -9.04655 0.00000
340 31 1 	-11.31992 -8.86708 0.00000
341 31 1 	-11.53107 -9.87950 0.00000
342 32 1 	6.81964 -1.55995 0.00000
343 32 1 	6.25817 0.14622 0.00000
344 32 1 	6.00808 1.19777 0.00000
345 32 1 	6.80981 1.71224 0.00000
346 32 1 	6.37647 0.49772 0.00000
347 32 1 	7.64396 0.70923 0.00000
348 32 1 	7.19657 0.45636 0.00000
349 32 1 	6.88750 1.01023 0.00000
350 32 1 	5.82236 1.99225 0.00000
351 32 1 	5.01864 1.48586 0.00000
352 32 1 	5.04347 1.13899 0.00000
353 33 1 	-17.88932 1.42722 0.00000
354 33 1 	-18.00919 2.64667 0.00000
355 33 1 	-18.61254 2.79841 0.00000
356 33 1 	-18.67908 3.11660 0.00000
357 33 1 	-18.66166 3.01787 0.00000
358 33 1 	-19.56540 4.89916 0.00000
359 33 1 	-17.88059 5.43954 0.00000
360 33 1 	-16.33065 5.17788 0.00000
361 33 1 	-15.72601 5.21189 0.00000
362 33 1 	-15.93411 4.14633 0.00000
363 33 1 	-15.89443 4.09250 0.00000
364 34 1 	0.57862 -6.58211 0.00000
365 34 1 	0.43916 -6.30631 0.00000
366 34 1 	0.28635 -7.16733 0.00000
367 34 1 	1.87129 -7.53166 0.00000
368 34 1 	2.43334 -7.78864 0.00000
369 34 1 	2.60340 -8.28790 0.00000
370 34 1 	2.62328 -8.26357 0.00000
371 34 1 	3.00067 -8.77722 0.00000
372 34 1 	2.20283 -8.90417 0.00000
373 34 1 	3.30531 -8.31497 0.00000
374 34 1 	2.34771 -8.36117 0.00000
375 35 1 	-8.62837 13.89623 0.00000
376 35 1 	-9.19971 14.25394 0.00000
377 35 1 	-8.89622 12.55340 0.00000
378 35 1 	-10.07514 13.41533 0.00000
379 35 1 	-9.26745 12.70416 0.00000
380 35 1 	-7.54598 13.73516 0.00000
381 35 1 	-6.33444 13.79504 0.00000
382 35 1 	-5.51374 12.97022 0.00000
383 35 1 	-5.72199 12.66902 0.00000
384 35 1 	-5.65810 11.33402 0.00000
385 35 1 	-6.75459 11.32386 0.00000
386 36 1 	7.30180 17.20542 0.00000
387 36 1 	7.52319 16.97522 0.00000
388 36 1 	8.20005 16.70905 0.00000
389 36 1 	8.12207 17.09664 0.00000
390 36 1 	8.28516 17.66305 0.00000
391 36 1 	8.01485 18.13898 0.00000
392 36 1 	7.80991 19.06056 0.00000
393 36 1 	7.78529 18.73600 0.00000
394 36 1 	7.20257 18.17556 0.00000
395 36 1 	8.35587 17.40315 0.00000
396 36 1 	9.61627 18.42521 0.00000
397 37 1 	11.83429 -18.39476 0.00000
398 37 1 	11.40615 -18.61568 0.00000
399 37 1 	11.23948 -17.46951 0.00000
400 37 1 	11.47089 -17.15858 0.00000
401 37 1 	11.41485 -17.54570 0.00000
402 37 1 	12.11527 -18.37038 0.00000
403 37 1 	10.99025 -17.57008 0.00000
404 37 1 	10.50281 -17.01275 0.00000
405 37 1 	10.25995 -16.73995 0.00000
406 37 1 	9.76858 -18.14600 0.00000
407 37 1 	9.77272 -18.17216 0.00000
408 38 1 	7.85654 -8.45045 0.00000
409 38 1 	6.90859 -8.14729 0.00000
410 38 1 	6.23353 -8.66152 0.00000
411 38 1 	6.13924 -9.65680 0.00000
412 38 1 	5.67111 -8.79691 0.00000
413 38 1 	5.63366 -10.20748 0.00000
414 38 1 	4.58112 -10.40121 0.00000
415 38 1 	4.38608 -11.20432 0.00000
416 38 1 	4.31861 -12.00358 0.00000
417 38 1 	5.83485 -12.57438 0.00000
418 38 1 	4.67054 -11.35326 0.00000
419 39 1 	11.39309 7.17676 0.00000
420 39 1 	10.83408 5.38925 0.00000
421 39 1 	11.00319 5.39174 0.00000
422 39 1 	10.49226 3.90217 0.00000
423 39 1 	11.24649 3.46552 0.00000
424 39 1 	11.43793 3.18275 0.00000
425 39 1 	11.36470 3.73889 0.00000
426 39 1 	11.87791 4.28093 0.00000
427 39 1 	12.53079 4.74544 0.00000
428 39 1 	12.08230 5.96339 0.00000
429 39 1 	13.41479 6.89853 0.00000
430 40 1 	-5.09746 18.02187 0.00000
431 40 1 	-6.32431 18.27547 0.00000
432 40 1 	-6.79766 18.90407 0.00000
433 40 1 	-6.55259 18.95602 0.00000
434 40 1 	-6.16720 18.73299 0.00000
435 40 1 	-5.42073 18.52388 0.00000
436 40 1 	-5.08698 18.30773 0.00000
437 40 1 	-4.85105 18.13836 0.00000
438 40 1 	-5.13947 18.50965 0.00000
439 40 1 	-6.51310 20.60843 0.00000
440 40 1 	-5.95720 20.29166 0.00000
441 41 1 	11.33082 -6.80440 0.00000
442 41 1 	10.89222 -7.38695 0.00000
443 41 1 	11.77738 -7.08577 0.00000
444 41 1 	12.51553 -7.06867 0.00000
445 41 1 	12.69322 -8.79084 0.00000
446 41 1 	12.84026 -7.82679 0.00000
447 41 1 	11.89523 -7.45321 0.00000
448 41 1 	12.57698 -7.49020 0.00000
449 41 1 	11.03819 -8.09016 0.00000
450 41 1 	11.20904 -7.40134 0.00000
451 41 1 	11.92226 -7.81150 0.00000
452 42 1 	2.19400 12.21874 0.00000
453 42 1 	1.46695 11.75052 0.00000
454 42 1 	2.23891 11.68984 0.00000
455 42 1 	2.41325 11.52470 0.00000
456 42 1 	1.97750 11.85032 0.00000
457 42 1 	1.27234 11.54073 0.00000
458 42 1 	1.61969 9.98323 0.00000
459 42 1 	0.94478 9.67470 0.00000
460 42 1 	1.31909 9.68507 0.00000
461 42 1 	0.53974 9.10820 0.00000
462 42 1 	0.93859 9.04249 0.00000
463 43 1 	4.29021 12.66657 0.00000
464 43 1 	4.88491 13.25272 0.00000
465 43 1 	4.73690 13.42351 0.00000
466 43 1 	4.25798 12.86595 0.00000
467 43 1 	3.63497 12.50607 0.00000
468 43 1 	3.27410 12.95877 0.00000
469 43 1 	3.23202 13.73598 0.00000
470 43 1 	3.29496 13.84809 0.00000
471 43 1 	5.17629 14.23485 0.00000
472 43 1 	5.52870 15.13682 0.00000
473 43 1 	5.65188 14.80153 0.00000
474 44 1 	1.89209 -1.32068 0.00000
475 44 1 	1.46348 -1.15669 0.00000
476 44 1 	2.38478 -1.52461 0.00000
477 44 1 	2.39234 -2.12210 0.00000
478 44 1 	3.68901 -2.93059 0.00000
479 44 1 	4.12961 -3.18695 0.00000
480 44 1 	3.68796 -3.37911 0.00000
481 44 1 	3.06983 -3.66715 0.00000
482 44 1 	1.51034 -4.79642 0.00000
483 44 1 	0.94186 -4.83880 0.00000
484 44 1 	1.86989 -3.93780 0.00000
485 45 1 	12.17760 4.21710 0.00000
486 45 1 	13.01519 4.06962 0.00000
487 45 1 	13.18430 3.84612 0.00000
488 45 1 	12.27441 3.39912 0.00000
489 45 1 	11.85172 2.82359 0.00000
490 45 1 	11.34314 2.46616 0.00000
491 45 1 	10.63953 2.65096 0.00000
492 45 1 	11.21957 2.99119 0.00000
493 45 1 	10.37243 3.63544 0.00000
494 45 1 	10.18418 4.08785 0.00000
495 45 1 	11.26184 3.23352 0.00000
496 46 1 	-2.67261 -8.48817 0.00000
497 46 1 	-1.83195 -9.53628 0.00000
498 46 1 	-1.34025 -7.94012 0.00000
499 46 1 	-1.62138 -8.03436 0.00000
500 46 1 	-1.37678 -7.72041 0.00000
501 46 1 	-0.85121 -8.02168 0.00000
502 46 1 	-0.37503 -7.93103 0.00000
503 46 1 	0.33959 -7.01882 0.00000
504 46 1 	-0.00666 -6.00875 0.00000
505 46 1 	0.22054 -6.30859 0.00000
506 46 1 	0.55080 -5.91820 0.00000
507 47 1 	-16.64117 -14.60859 0.00000
508 47 1 	-17.26829 -15.76644 0.00000
509 47 1 	-17.38543 -16.25712 0.00000
510 47 1 	-16.85607 -16.18509 0.00000
511 47 1 	-15.66797 -15.94516 0.00000
512 47 1 	-15.58057 -15.24992 0.00000
513 47 1 	-16.46591 -15.21377 0.00000
514 47 1 	-16.73367 -14.52519 0.00000
515 47 1 	-17.44995 -15.22784 0.00000
516 47 1 	-17.70174 -15.77949 0.00000
517 47 1 	-18.86107 -16.34548 0.00000
518 48 1 	-5.04040 14.18472 0.00000
519 48 1 	-4.74570 15.14209 0.00000
520 48 1 	-3.25311 15.74682 0.00000
521 48 1 	-2.75611 15.95263 0.00000
522 48 1 	-2.82174 16.75127 0.00000
523 48 1 	-1.97866 17.15772 0.00000
524 48 1 	-2.80380 16.74173 0.00000
525 48 1 	-4.00537 16.58173 0.00000
526 48 1 	-4.55121 16.92964 0.00000
527 48 1 	-4.12417 16.35402 0.00000
528 48 1 	-4.22459 15.92175 0.00000
529 49 1 	-17.37257 -12.04457 0.00000
530 49 1 	-18.13072 -11.58573 0.00000
531 49 1 	-18.46517 -11.61095 0.00000
532 49 1 	-17.23499 -10.36420 0.00000
533 49 1 	-16.30802 -10.50567 0.00000
534 49 1 	-15.78264 -9.79801 0.00000
535 49 1 	-13.87758 -9.92081 0.00000
536 49 1 	-14.29254 -11.15379 0.00000
537 49 1 	-16.14167 -11.63840 0.00000
538 49 1 	-16.26453 -13.18812 0.00000
539 49 1 	-15.08421 -14.04929 0.00000
540 50 1 	17.45453 -4.13910 0.00000
541 50 1 	17.01479 -3.63987 0.00000
542 50 1 	15.95302 -4.83903 0.00000
543 50 1 	16.43591 -5.50048 0.00000
544 50 1 	16.92264 -4.92955 0.00000
545 50 1 	18.41742 -4.55807 0.00000
546 50 1 	17.76485 -3.60529 0.00000
547 50 1 	17.58808 -3.41831 0.00000
548 50 1 	17.79221 -3.32454 0.00000
549 50 1 	17.02626 -2.18438 0.00000
550 50 1 	17.38496 -2.36040 0.00000
551 51 1 	-7.46304 -7.63824 0.00000
552 51 1 	-8.92314 -7.82841 0.00000
553 51 1 	-9.37289 -6.93186 0.00000
554 51 1 	-9.48313 -6.16857 0.00000
555 51 1 	-10.45331 -6.14075 0.00000
556 51 1 	-10.94020 -4.70014 0.00000
557 51 1 	-11.26647 -3.91621 0.00000
558 51 1 	-10.24234 -4.33339 0.00000
559 51 1 	-10.28650 -3.66114 0.00000
560 51 1 	-10.98962 -2.76834 0.00000
561 51 1 	-11.37874 -4.06436 0.00000
562 52 1 	-1.86944 -8.94441 0.00000
563 52 1 	-2.08390 -8.30561 0.00000
564 52 1 	-2.40541 -7.91281 0.00000
565 52 1 	-2.03475 -7.40255 0.00000
566 52 1 	-1.67684 -6.47458 0.00000
567 52 1 	-0.72041 -6.75181 0.00000
568 52 1 	-0.89945 -6.66315 0.00000
569 52 1 	-0.78393 -6.93781 0.00000
570 52 1 	-0.94855 -5.97058 0.00000
571 52 1 	-1.46846 -6.81870 0.00000
572 52 1 	-2.12570 -5.26443 0.00000
573 53 1 	19.01980 8.22831 0.00000
574 53 1 	20.25505 8.11109 0.00000
575 53 1 	20.31431 8.27635 0.00000
576 53 1 	19.13283 9.34472 0.00000
577 53 1 	19.22752 8.34525 0.00000
578 53 1 	19.05335 9.39917 0.00000
579 53 1 	19.23252 8.34251 0.00000
580 53 1 	19.23290 8.81860 0.00000
581 53 1 	19.23056 7.76202 0.00000
582 53 1 	19.05128 8.43296 0.00000
583 53 1 	19.58406 8.42977 0.00000
584 54 1 	-1.98123 -3.85484 0.00000
585 54 1 	-0.81411 -3.69732 0.00000
586 54 1 	-0.47707 -3.90134 0.00000
587 54 1 	-0.18015 -4.21856 0.00000
588 54 1 	-0.03410 -3.72679 0.00000
589 54 1 	1.35406 -3.14272 0.00000
590 54 1 	1.43941 -3.72505 0.00000
591 54 1 	1.01222 -3.29848 0.00000
592 54 1 	0.39452 -2.37167 0.00000
593 54 1 	1.05213 -1.87786 0.00000
594 54 1 	0.79947 -2.44400 0.00000
595 55 1 	13.42798 -1.77031 0.00000
596 55 1 	12.19523 -3.05173 0.00000
597 55 1 	14.36732 -4.17232 0.00000
598 55 1 	14.39777 -4.28451 0.00000
599 55 1 	15.06350 -6.12933 0.00000
600 55 1 	15.24848 -7.02963 0.00000
601 55 1 	15.91723 -5.95437 0.00000
602 55 1 	16.14677 -6.39363 0.00000
603 55 1 	15.45460 -6.28632 0.00000
604 55 1 	14.59754 -5.66355 0.00000
605 55 1 	14.41716 -6.42009 0.00000
606 56 1 	0.89849 -3.22485 0.00000
607 56 1 	2.55368 -2.75541 0.00000
608 56 1 	1.26168 -1.59756 0.00000
609 56 1 	0.89954 -1.45173 0.00000
610 56 1 	2.13466 -1.52203 0.00000
611 56 1 	2.79899 -0.64551 0.00000
612 56 1 	2.57100 -0.52701 0.00000
613 56 1 	1.70277 -0.72833 0.00000
614 56 1 	3.07283 -1.15493 0.00000
615 56 1 	3.06917 -1.07877 0.00000
616 56 1 	2.50621 0.14758 0.00000
617 57 1 	0.92170 19.45797 0.00000
618 57 1 	1.39501 18.95639 0.00000
619 57 1 	1.33377 19.76073 0.00000
620 57 1 	1.13139 20.18500 0.00000
621 57 1 	0.59216 20.01327 0.00000
622 57 1 	0.18864 19.86601 0.00000
623 57 1 	0.40161 20.96177 0.00000
624 57 1 	0.08156 22.17620 0.00000
625 57 1 	1.29766 22.91030 0.00000
626 57 1 	2.19888 21.86409 0.00000
627 57 1 	1.83582 21.42621 0.00000
628 58 1 	-17.97764 2.75308 0.00000
629 58 1 	-17.99622 2.83741 0.00000
630 58 1 	-17.73984 2.40165 0.00000
631 58 1 	-18.68723 3.09365 0.00000
632 58 1 	-19.05013 3.36580 0.00000
633 58 1 	-20.30960 3.18489 0.00000
634 58 1 	-19.74955 2.44643 0.00000
635 58 1 	-18.96332 2.10930 0.00000
636 58 1 	-18.63295 2.03058 0.00000
637 58 1 	-17.92054 3.06464 0.00000
638 58 1 	-17.83169 5.06320 0.00000
639 59 1 	-9.79167 4.27988 0.00000
640 59 1 	-8.79641 4.34107 0.00000
641 59 1 	-8.93218 3.74520 0.00000
642 59 1 	-8.01429 4.09321 0.00000
643 59 1 	-8.02895 3.00446 0.00000
644 59 1 	-7.47375 1.69532 0.00000
645 59 1 	-8.12331 2.27823 0.00000
646 59 1 	-8.51693 1.33326 0.00000
647 59 1 	-9.27349 1.94306 0.00000
648 59 1 	-9.58267 1.26832 0.00000
649 59 1 	-9.21180 0.10619 0.00000
650 60 1 	2.48054 -5.79231 0.00000
651 60 1 	2.45483 -5.52321 0.00000
652 60 1 	1.40904 -5.87341 0.00000
653 60 1 	0.79197 -6.01854 0.00000
654 60 1 	0.56939 -5.97015 0.00000
655 60 1 	0.72175 -7.06869 0.00000
656 60 1 	0.73169 -7.87264 0.00000
657 60 1 	0.85126 -5.95832 0.00000
658 60 1 	0.73337 -6.15188 0.00000
659 60 1 	0.31679 -5.79870 0.00000
660 60 1 	-0.79486 -5.37425 0.00000
661 61 1 	-5.47577 -11.60495 0.00000
662 61 1 	-4.85839 -11.82492 0.00000
663 61 1 	-4.76191 -11.37850 0.00000
664 61 1 	-4.60729 -11.84219 0.00000
665 61 1 	-4.88636 -11.11278 0.00000
666 61 1 	-6.23021 -10.82803 0.00000
667 61 1 	-6.79858 -10.38967 0.00000
668 61 1 	-6.55237 -10.04949 0.00000
669 61 1 	-7.63423 -10.12796 0.00000
670 61 1 	-7.30364 -10.86542 0.00000
671 61 1 	-7.47547 -11.00982 0.00000
672 62 1 	9.29826 0.14861 0.00000
673 62 1 	8.53985 0.36381 0.00000
674 62 1 	9.04555 -0.13710 0.00000
675 62 1 	8.64090 -0.38293 0.00000
676 62 1 	9.10178 0.39745 0.00000
677 62 1 	8.80867 0.84774 0.00000
678 62 1 	8.33239 -0.32159 0.00000
679 62 1 	8.56765 -0.01530 0.00000
680 62 1 	7.84407 -0.20503 0.00000
681 62 1 	8.53716 -0.61957 0.00000
682 62 1 	9.18813 -0.69892 0.00000
683 63 1 	-12.21728 8.66325 0.00000
684 63 1 	-12.62763 8.64413 0.00000
685 63 1 	-13.78437 8.39858 0.00000
686 63 1 	-13.90185 8.62687 0.00000
687 63 1 	-12.57369 8.84916 0.00000
688 63 1 	-12.06273 8.62522 0.00000
689 63 1 	-12.52373 8.15340 0.00000
690 63 1 	-11.48615 9.48988 0.00000
691 63 1 	-12.29615 8.73925 0.00000
692 63 1 	-12.50814 7.71177 0.00000
693 63 1 	-10.89773 7.42110 0.00000
694 64 1 	14.48722 -1.28135 0.00000
695 64 1 	14.82904 -1.65905 0.00000
696 64 1 	15.07817 -1.92815 0.00000
697 64 1 	15.04220 -2.98867 0.00000
698 64 1 	14.84424 -3.56396 0.00000
699 64 1 	15.01203 -2.56391 0.00000
700 64 1 	15.18854 -2.29726 0.00000
701 64 1 	13.03396 -2.05624 0.00000
702 64 1 	12.16750 -2.64134 0.00000
703 64 1 	12.30411 -1.32272 0.00000
704 64 1 	12.18458 -1.32337 0.00000
705 65 1 	-4.49984 5.68883 0.00000
706 65 1 	-3.57192 5.01283 0.00000
707 65 1 	-3.81074 4.79963 0.00000
708 65 1 	-2.98895 4.49790 0.00000
709 65 1 	-3.04001 3.65595 0.00000
710 65 1 	-2.55409 4.39586 0.00000
711 65 1 	-3.06791 3.00461 0.00000
712 65 1 	-3.77240 4.28783 0.00000
713 65 1 	-3.69106 3.89072 0.00000
714 65 1 	-4.14694 3.79899 0.00000
715 65 1 	-4.12564 4.56316 0.00000
716 66 1 	4.09665 12.52125 0.00000
717 66 1 	3.74278 11.67525 0.00000
718 66 1 	3.74640 12.87077 0.00000
719 66 1 	3.37438 13.23724 0.00000
720 66 1 	1.97835 12.29627 0.00000
721 66 1 	2.60108 11.37173 0.00000
722 66 1 	2.21341 10.29286 0.00000
723 66 1 	2.61957 10.03189 0.00000
724 66 1 	3.02030 10.32956 0.00000
725 66 1 	2.57975 10.29145 0.00000
726 66 1 	3.25521 9.13830 0.00000
727 67 1 	-2.78092 -5.57234 0.00000
728 67 1 	-2.67250 -5.42436 0.00000
729 67 1 	-2.32555 -7.13265 0.00000
730 67 1 	-1.74924 -7.82686 0.00000
731 67 1 	-1.65569 -8.95545 0.00000
732 67 1 	-1.39189 -8.15966 0.00000
733 67 1 	-2.12564 -8.40347 0.00000
734 67 1 	-2.68050 -8.25188 0.00000
735 67 1 	-3.53995 -8.76142 0.00000
736 67 1 	-2.74866 -8.30044 0.00000
737 67 1 	-3.30422 -8.50055 0.00000
738 68 1 	-8.64104 -2.48125 0.00000
739 68 1 	-9.52993 -2.99457 0.00000
740 68 1 	-7.76102 -4.75350 0.00000
741 68 1 	-8.38313 -4.59383 0.00000
742 68 1 	-7.58255 -5.38754 0.00000
743 68 1 	-7.45297 -5.30921 0.00000
744 68 1 	-6.17161 -4.37205 0.00000
745 68 1 	-6.67710 -3.08266 0.00000
746 68 1 	-6.09541 -2.27512 0.00000
747 68 1 	-7.10274 -2.29010 0.00000
748 68 1 	-6.68628 -2.07516 0.00000
749 69 1 	0.50500 -11.59078 0.00000
750 69 1 	1.32241 -12.20613 0.00000
751 69 1 	1.22315 -12.78071 0.00000
752 69 1 	0.72384 -12.21564 0.00000
753 69 1 	1.14355 -11.50555 0.00000
754 69 1 	1.22656 -11.53850 0.00000
755 69 1 	2.14836 -10.70610 0.00000
756 69 1 	2.37963 -9.86291 0.00000
757 69 1 	2.56715 -11.31820 0.00000
758 69 1 	2.23443 -12.56387 0.00000
759 69 1 	1.22082 -12.64399 0.00000
760 70 1 	-1.20034 13.84866 0.00000
761 70 1 	-2.15943 13.24890 0.00000
762 70 1 	-3.62238 12.56638 0.00000
763 70 1 	-4.27992 12.18534 0.00000
764 70 1 	-4.75057 12.36587 0.00000
765 70 1 	-4.66655 11.49732 0.00000
766 70 1 	-4.91304 11.30538 0.00000
767 70 1 	-5.37667 11.53353 0.00000
768 70 1 	-4.80015 10.72584 0.00000
769 70 1 	-4.82804 10.76148 0.00000
770 70 1 	-5.96938 11.53843 0.00000
771 71 1 	-0.90821 2.43015 0.00000
772 71 1 	-1.79201 2.42039 0.00000
773 71 1 	-2.16224 3.88610 0.00000
774 71 1 	-1.45539 3.41321 0.00000
775 71 1 	-1.74438 5.09743 0.00000
776 71 1 	-2.11396 5.76312 0.00000
777 71 1 	-2.00530 6.35567 0.00000
778 71 1 	-2.45331 7.30026 0.00000
779 71 1 	-2.79163 7.03554 0.00000
780 71 1 	-2.03677 6.61902 0.00000
781 71 1 	-1.89251 5.52948 0.00000
782 72 1 	6.31386 -1.76280 0.00000
783 72 1 	7.35685 -2.61498 0.00000
784 72 1 	7.37507 -2.03777 0.00000
785 72 1 	7.93703 -1.88237 0.00000
786 72 1 	6.92511 -1.19566 0.00000
787 72 1 	6.39175 -0.52556 0.00000
788 72 1 	5.41154 -0.26746 0.00000
789 72 1 	5.30921 -0.36468 0.00000
790 72 1 	6.34898 -1.29456 0.00000
791 72 1 	7.03213 -1.05159 0.00000
792 72 1 	6.30774 -1.34473 0.00000
793 73 1 	15.14050 18.38501 0.00000
794 73 1 	13.98658 18.02957 0.00000
795 73 1 	14.10241 17.83338 0.00000
796 73 1 	14.72698 17.53298 0.00000
797 73 1 	14.79688 17.52256 0.00000
798 73 1 	14.99163 18.95267 0.00000
799 73 1 	17.04365 19.29008 0.00000
800 73 1 	16.60020 18.26315 0.00000
801 73 1 	16.34829 19.24894 0.00000
802 73 1 	17.31890 19.97316 0.00000
803 73 1 	17.97684 19.29043 0.00000
804 74 1 	-15.07892 -5.85725 0.00000
805 74 1 	-14.99440 -7.14059 0.00000
806 74 1 	-16.12456 -6.42669 0.00000
807 74 1 	-16.39999 -6.20313 0.00000
808 74 1 	-15.98936 -4.42532 0.00000
809 74 1 	-15.21687 -3.66999 0.00000
810 74 1 	-14.57611 -4.72211 0.00000
811 74 1 	-14.56319 -3.95915 0.00000
812 74 1 	-14.74558 -3.03658 0.00000
813 74 1 	-15.70620 -2.51964 0.00000
814 74 1 	-13.57088 -4.58750 0.00000
815 75 1 	-14.89261 -6.04443 0.00000
816 75 1 	-14.12573 -6.87349 0.00000
817 75 1 	-13.30865 -5.75008 0.00000
818 75 1 	-13.22208 -5.29940 0.00000
819 75 1 	-13.91646 -4.13313 0.00000
820 75 1 	-13.59183 -5.09426 0.00000
821 75 1 	-13.90966 -6.89977 0.00000
822 75 1 	-12.48750 -6.69296 0.00000
823 75 1 	-12.23000 -6.59131 0.00000
824 75 1 	-12.57389 -6.67010 0.00000
825 75 1 	-12.38074 -6.26826 0.00000
826 76 1 	-17.96948 -5.41503 0.00000
827 76 1 	-18.61353 -5.84025 0.00000
828 76 1 	-17.21912 -6.11805 0.00000
829 76 1 	-17.67352 -6.14692 0.00000
830 76 1 	-17.68916 -5.87893 0.00000
831 76 1 	-16.73772 -5.43225 0.00000
832 76 1 	-17.22363 -4.16884 0.00000
833 76 1 	-16.33373 -4.91245 0.00000
834 76 1 	-15.60433 -4.82115 0.00000
835 76 1 	-16.03070 -5.00180 0.00000
836 76 1 	-17.08320 -5.20980 0.00000
837 77 1 	12.44518 -8.40003 0.00000
838 77 1 	11.97891 -7.77311 0.00000